
     Program PWSCF v.5.1.2 starts on 28Oct2015 at 12:45:17 

     This program is part of the open-source Quantum ESPRESSO suite
     for quantum simulation of materials; please cite
         "P. Giannozzi et al., J. Phys.:Condens. Matter 21 395502 (2009);
          URL http://www.quantum-espresso.org", 
     in publications or presentations arising from this work. More details at
     http://www.quantum-espresso.org/quote

     Parallel version (MPI), running on     4 processors
     R & G space division:  proc/nbgrp/npool/nimage =       4
     Waiting for input...
     Reading input from standard input

     Current dimensions of program PWSCF are:
     Max number of different atomic species (ntypx) = 10
     Max number of k-points (npk) =  40000
     Max angular momentum in pseudopotentials (lmaxx) =  3

     Atomic positions and unit cell read from directory:
     /home/users/gstephen/DFTProject/Ti2MnAl/test4/pwscf.save/
 
     WARNING: atomic wfc #  1 for atom type 1 has zero norm
     WARNING: atomic wfc #  2 for atom type 1 has zero norm
     WARNING: atomic wfc #  3 for atom type 1 has zero norm

     Subspace diagonalization in iterative solution of the eigenvalue problem:
     a serial algorithm will be used

     Found symmetry operation: I + (  0.0000 -0.5000 -0.5000)
     This is a supercell, fractional translations are disabled
 
     Parallelization info
     --------------------
     sticks:   dense  smooth     PW     G-vecs:    dense   smooth      PW
     Min         536     536    149                18626    18626    2780
     Max         537     537    151                18629    18629    2781
     Sum        2145    2145    601                74509    74509   11123
 


     bravais-lattice index     =            1
     lattice parameter (alat)  =      11.5991  a.u.
     unit-cell volume          =    1560.5485 (a.u.)^3
     number of atoms/cell      =           16
     number of atomic types    =            3
     number of electrons       =       176.00
     number of Kohn-Sham states=          150
     kinetic-energy cutoff     =      50.0000  Ry
     charge density cutoff     =     200.0000  Ry
     Exchange-correlation      = SLA-PW-PBX-PBC ( 1  4  3  4 0 0)

     celldm(1)=  11.599139  celldm(2)=   0.000000  celldm(3)=   0.000000
     celldm(4)=   0.000000  celldm(5)=   0.000000  celldm(6)=   0.000000

     crystal axes: (cart. coord. in units of alat)
               a(1) = (   1.000000   0.000000   0.000000 )  
               a(2) = (   0.000000   1.000000   0.000000 )  
               a(3) = (   0.000000   0.000000   1.000000 )  

     reciprocal axes: (cart. coord. in units 2 pi/alat)
               b(1) = (  1.000000  0.000000  0.000000 )  
               b(2) = (  0.000000  1.000000  0.000000 )  
               b(3) = (  0.000000  0.000000  1.000000 )  


     PseudoPot. # 1 for Tl read from file:
     /home/users/gstephen/DFTProject/Ti2MnAl/Tl.pbe-d-hgh.UPF
     MD5 check sum: 6ca497e634424132abc5fc8e10db8b65
     Pseudo is Norm-conserving, Zval = 13.0
     Generated in analytical, separable form
     Using radial grid of 1281 points,  6 beta functions with: 
                l(1) =   0
                l(2) =   0
                l(3) =   1
                l(4) =   1
                l(5) =   2
                l(6) =   2

     PseudoPot. # 2 for Mn read from file:
     /home/users/gstephen/DFTProject/Ti2MnAl/Mn.pbe-sp-hgh.UPF
     MD5 check sum: 3e34829e68efb4927d63695bef9f06b2
     Pseudo is Norm-conserving, Zval = 15.0
     Generated in analytical, separable form
     Using radial grid of 1187 points,  5 beta functions with: 
                l(1) =   0
                l(2) =   0
                l(3) =   1
                l(4) =   1
                l(5) =   2

     PseudoPot. # 3 for Al read from file:
     /home/users/gstephen/DFTProject/Ti2MnAl/Al.pbe-hgh.UPF
     MD5 check sum: 35dc628c1db15067e5ee3d0771eea4f3
     Pseudo is Norm-conserving, Zval =  3.0
     Generated in analytical, separable form
     Using radial grid of 1135 points,  3 beta functions with: 
                l(1) =   0
                l(2) =   0
                l(3) =   1

     atomic species   valence    mass     pseudopotential
        Ti            13.00    47.86700     Tl( 1.00)
        Mn            15.00    54.93804     Mn( 1.00)
        Al             3.00    26.98154     Al( 1.00)

     24 Sym. Ops. (no inversion) found


                                    s                        frac. trans.

      isym =  1     identity                                     

 cryst.   s( 1) = (     1          0          0      )
                  (     0          1          0      )
                  (     0          0          1      )

 cart.    s( 1) = (  1.0000000  0.0000000  0.0000000 )
                  (  0.0000000  1.0000000  0.0000000 )
                  (  0.0000000  0.0000000  1.0000000 )


      isym =  2     180 deg rotation - cart. axis [0,0,1]        

 cryst.   s( 2) = (    -1          0          0      )
                  (     0         -1          0      )
                  (     0          0          1      )

 cart.    s( 2) = ( -1.0000000  0.0000000  0.0000000 )
                  (  0.0000000 -1.0000000  0.0000000 )
                  (  0.0000000  0.0000000  1.0000000 )


      isym =  3     180 deg rotation - cart. axis [0,1,0]        

 cryst.   s( 3) = (    -1          0          0      )
                  (     0          1          0      )
                  (     0          0         -1      )

 cart.    s( 3) = ( -1.0000000  0.0000000  0.0000000 )
                  (  0.0000000  1.0000000  0.0000000 )
                  (  0.0000000  0.0000000 -1.0000000 )


      isym =  4     180 deg rotation - cart. axis [1,0,0]        

 cryst.   s( 4) = (     1          0          0      )
                  (     0         -1          0      )
                  (     0          0         -1      )

 cart.    s( 4) = (  1.0000000  0.0000000  0.0000000 )
                  (  0.0000000 -1.0000000  0.0000000 )
                  (  0.0000000  0.0000000 -1.0000000 )


      isym =  5     120 deg rotation - cart. axis [-1,-1,-1]     

 cryst.   s( 5) = (     0          0          1      )
                  (     1          0          0      )
                  (     0          1          0      )

 cart.    s( 5) = (  0.0000000  1.0000000  0.0000000 )
                  (  0.0000000  0.0000000  1.0000000 )
                  (  1.0000000  0.0000000  0.0000000 )


      isym =  6     120 deg rotation - cart. axis [-1,1,1]       

 cryst.   s( 6) = (     0          0         -1      )
                  (    -1          0          0      )
                  (     0          1          0      )

 cart.    s( 6) = (  0.0000000 -1.0000000  0.0000000 )
                  (  0.0000000  0.0000000  1.0000000 )
                  ( -1.0000000  0.0000000  0.0000000 )


      isym =  7     120 deg rotation - cart. axis [1,1,-1]       

 cryst.   s( 7) = (     0          0         -1      )
                  (     1          0          0      )
                  (     0         -1          0      )

 cart.    s( 7) = (  0.0000000  1.0000000  0.0000000 )
                  (  0.0000000  0.0000000 -1.0000000 )
                  ( -1.0000000  0.0000000  0.0000000 )


      isym =  8     120 deg rotation - cart. axis [1,-1,1]       

 cryst.   s( 8) = (     0          0          1      )
                  (    -1          0          0      )
                  (     0         -1          0      )

 cart.    s( 8) = (  0.0000000 -1.0000000  0.0000000 )
                  (  0.0000000  0.0000000 -1.0000000 )
                  (  1.0000000  0.0000000  0.0000000 )


      isym =  9     120 deg rotation - cart. axis [1,1,1]        

 cryst.   s( 9) = (     0          1          0      )
                  (     0          0          1      )
                  (     1          0          0      )

 cart.    s( 9) = (  0.0000000  0.0000000  1.0000000 )
                  (  1.0000000  0.0000000  0.0000000 )
                  (  0.0000000  1.0000000  0.0000000 )


      isym = 10     120 deg rotation - cart. axis [-1,1,-1]      

 cryst.   s(10) = (     0         -1          0      )
                  (     0          0         -1      )
                  (     1          0          0      )

 cart.    s(10) = (  0.0000000  0.0000000  1.0000000 )
                  ( -1.0000000  0.0000000  0.0000000 )
                  (  0.0000000 -1.0000000  0.0000000 )


      isym = 11     120 deg rotation - cart. axis [1,-1,-1]      

 cryst.   s(11) = (     0         -1          0      )
                  (     0          0          1      )
                  (    -1          0          0      )

 cart.    s(11) = (  0.0000000  0.0000000 -1.0000000 )
                  ( -1.0000000  0.0000000  0.0000000 )
                  (  0.0000000  1.0000000  0.0000000 )


      isym = 12     120 deg rotation - cart. axis [-1,-1,1]      

 cryst.   s(12) = (     0          1          0      )
                  (     0          0         -1      )
                  (    -1          0          0      )

 cart.    s(12) = (  0.0000000  0.0000000 -1.0000000 )
                  (  1.0000000  0.0000000  0.0000000 )
                  (  0.0000000 -1.0000000  0.0000000 )


      isym = 13     inv. 180 deg rotation - cart. axis [1,1,0]   

 cryst.   s(13) = (     0         -1          0      )
                  (    -1          0          0      )
                  (     0          0          1      )

 cart.    s(13) = (  0.0000000 -1.0000000  0.0000000 )
                  ( -1.0000000  0.0000000  0.0000000 )
                  (  0.0000000  0.0000000  1.0000000 )


      isym = 14     inv. 180 deg rotation - cart. axis [1,-1,0]  

 cryst.   s(14) = (     0          1          0      )
                  (     1          0          0      )
                  (     0          0          1      )

 cart.    s(14) = (  0.0000000  1.0000000  0.0000000 )
                  (  1.0000000  0.0000000  0.0000000 )
                  (  0.0000000  0.0000000  1.0000000 )


      isym = 15     inv.  90 deg rotation - cart. axis [0,0,-1]  

 cryst.   s(15) = (     0          1          0      )
                  (    -1          0          0      )
                  (     0          0         -1      )

 cart.    s(15) = (  0.0000000 -1.0000000  0.0000000 )
                  (  1.0000000  0.0000000  0.0000000 )
                  (  0.0000000  0.0000000 -1.0000000 )


      isym = 16     inv.  90 deg rotation - cart. axis [0,0,1]   

 cryst.   s(16) = (     0         -1          0      )
                  (     1          0          0      )
                  (     0          0         -1      )

 cart.    s(16) = (  0.0000000  1.0000000  0.0000000 )
                  ( -1.0000000  0.0000000  0.0000000 )
                  (  0.0000000  0.0000000 -1.0000000 )


      isym = 17     inv. 180 deg rotation - cart. axis [1,0,1]   

 cryst.   s(17) = (     0          0         -1      )
                  (     0          1          0      )
                  (    -1          0          0      )

 cart.    s(17) = (  0.0000000  0.0000000 -1.0000000 )
                  (  0.0000000  1.0000000  0.0000000 )
                  ( -1.0000000  0.0000000  0.0000000 )


      isym = 18     inv. 180 deg rotation - cart. axis [-1,0,1]  

 cryst.   s(18) = (     0          0          1      )
                  (     0          1          0      )
                  (     1          0          0      )

 cart.    s(18) = (  0.0000000  0.0000000  1.0000000 )
                  (  0.0000000  1.0000000  0.0000000 )
                  (  1.0000000  0.0000000  0.0000000 )


      isym = 19     inv.  90 deg rotation - cart. axis [0,1,0]   

 cryst.   s(19) = (     0          0          1      )
                  (     0         -1          0      )
                  (    -1          0          0      )

 cart.    s(19) = (  0.0000000  0.0000000 -1.0000000 )
                  (  0.0000000 -1.0000000  0.0000000 )
                  (  1.0000000  0.0000000  0.0000000 )


      isym = 20     inv.  90 deg rotation - cart. axis [0,-1,0]  

 cryst.   s(20) = (     0          0         -1      )
                  (     0         -1          0      )
                  (     1          0          0      )

 cart.    s(20) = (  0.0000000  0.0000000  1.0000000 )
                  (  0.0000000 -1.0000000  0.0000000 )
                  ( -1.0000000  0.0000000  0.0000000 )


      isym = 21     inv. 180 deg rotation - cart. axis [0,1,1]   

 cryst.   s(21) = (     1          0          0      )
                  (     0          0         -1      )
                  (     0         -1          0      )

 cart.    s(21) = (  1.0000000  0.0000000  0.0000000 )
                  (  0.0000000  0.0000000 -1.0000000 )
                  (  0.0000000 -1.0000000  0.0000000 )


      isym = 22     inv. 180 deg rotation - cart. axis [0,1,-1]  

 cryst.   s(22) = (     1          0          0      )
                  (     0          0          1      )
                  (     0          1          0      )

 cart.    s(22) = (  1.0000000  0.0000000  0.0000000 )
                  (  0.0000000  0.0000000  1.0000000 )
                  (  0.0000000  1.0000000  0.0000000 )


      isym = 23     inv.  90 deg rotation - cart. axis [-1,0,0]  

 cryst.   s(23) = (    -1          0          0      )
                  (     0          0          1      )
                  (     0         -1          0      )

 cart.    s(23) = ( -1.0000000  0.0000000  0.0000000 )
                  (  0.0000000  0.0000000 -1.0000000 )
                  (  0.0000000  1.0000000  0.0000000 )


      isym = 24     inv.  90 deg rotation - cart. axis [1,0,0]   

 cryst.   s(24) = (    -1          0          0      )
                  (     0          0         -1      )
                  (     0          1          0      )

 cart.    s(24) = ( -1.0000000  0.0000000  0.0000000 )
                  (  0.0000000  0.0000000  1.0000000 )
                  (  0.0000000 -1.0000000  0.0000000 )


     point group T_d (-43m) 
     there are  5 classes
     the character table:

       E     8C3   3C2   6S4   6s_d 
A_1    1.00  1.00  1.00  1.00  1.00
A_2    1.00  1.00  1.00 -1.00 -1.00
E      2.00 -1.00  2.00  0.00  0.00
T_1    3.00  0.00 -1.00  1.00 -1.00
T_2    3.00  0.00 -1.00 -1.00  1.00

     the symmetry operations in each class and the name of the first element:

     E        1
                                                                 
     8C3      5    7    8    6   12    9   10   11
                                                                 
     3C2      2    3    4
                                                                 
     6S4     15   16   20   19   23   24
                                                                 
     6s_d    13   14   17   18   21   22
                                                                 

   Cartesian axes

     site n.     atom                  positions (alat units)
         1           Ti  tau(   1) = (   0.0000000   0.0000000   0.0000000  )
         2           Ti  tau(   2) = (   0.0000000   0.5000000   0.5000000  )
         3           Ti  tau(   3) = (   0.5000000   0.0000000   0.5000000  )
         4           Ti  tau(   4) = (   0.5000000   0.5000000   0.0000000  )
         5           Ti  tau(   5) = (   0.2500000   0.2500000   0.2500000  )
         6           Ti  tau(   6) = (   0.7500000   0.7500000   0.2500000  )
         7           Ti  tau(   7) = (   0.7500000   0.2500000   0.7500000  )
         8           Ti  tau(   8) = (   0.2500000   0.7500000   0.7500000  )
         9           Mn  tau(   9) = (   0.5000000   0.5000000   0.5000000  )
        10           Mn  tau(  10) = (   0.5000000   0.0000000   0.0000000  )
        11           Mn  tau(  11) = (   0.0000000   0.5000000   0.0000000  )
        12           Mn  tau(  12) = (   0.0000000   0.0000000   0.5000000  )
        13           Al  tau(  13) = (   0.7500000   0.7500000   0.7500000  )
        14           Al  tau(  14) = (   0.2500000   0.2500000   0.7500000  )
        15           Al  tau(  15) = (   0.2500000   0.7500000   0.2500000  )
        16           Al  tau(  16) = (   0.7500000   0.2500000   0.2500000  )

   Crystallographic axes

     site n.     atom                  positions (cryst. coord.)
         1           Ti  tau(   1) = (  0.0000000  0.0000000  0.0000000  )
         2           Ti  tau(   2) = (  0.0000000  0.5000000  0.5000000  )
         3           Ti  tau(   3) = (  0.5000000  0.0000000  0.5000000  )
         4           Ti  tau(   4) = (  0.5000000  0.5000000  0.0000000  )
         5           Ti  tau(   5) = (  0.2500000  0.2500000  0.2500000  )
         6           Ti  tau(   6) = (  0.7500000  0.7500000  0.2500000  )
         7           Ti  tau(   7) = (  0.7500000  0.2500000  0.7500000  )
         8           Ti  tau(   8) = (  0.2500000  0.7500000  0.7500000  )
         9           Mn  tau(   9) = (  0.5000000  0.5000000  0.5000000  )
        10           Mn  tau(  10) = (  0.5000000  0.0000000  0.0000000  )
        11           Mn  tau(  11) = (  0.0000000  0.5000000  0.0000000  )
        12           Mn  tau(  12) = (  0.0000000  0.0000000  0.5000000  )
        13           Al  tau(  13) = (  0.7500000  0.7500000  0.7500000  )
        14           Al  tau(  14) = (  0.2500000  0.2500000  0.7500000  )
        15           Al  tau(  15) = (  0.2500000  0.7500000  0.2500000  )
        16           Al  tau(  16) = (  0.7500000  0.2500000  0.2500000  )

     number of k points=   351  gaussian smearing, width (Ry)=  0.0600
                       cart. coord. in units 2pi/alat
        k(    1) = (   0.0000000   0.0000000   0.0000000), wk =   0.0056980
        k(    2) = (   0.0100000   0.0000000   0.0000000), wk =   0.0056980
        k(    3) = (   0.0200000   0.0000000   0.0000000), wk =   0.0056980
        k(    4) = (   0.0300000   0.0000000   0.0000000), wk =   0.0056980
        k(    5) = (   0.0400000   0.0000000   0.0000000), wk =   0.0056980
        k(    6) = (   0.0500000   0.0000000   0.0000000), wk =   0.0056980
        k(    7) = (   0.0600000   0.0000000   0.0000000), wk =   0.0056980
        k(    8) = (   0.0700000   0.0000000   0.0000000), wk =   0.0056980
        k(    9) = (   0.0800000   0.0000000   0.0000000), wk =   0.0056980
        k(   10) = (   0.0900000   0.0000000   0.0000000), wk =   0.0056980
        k(   11) = (   0.1000000   0.0000000   0.0000000), wk =   0.0056980
        k(   12) = (   0.1100000   0.0000000   0.0000000), wk =   0.0056980
        k(   13) = (   0.1200000   0.0000000   0.0000000), wk =   0.0056980
        k(   14) = (   0.1300000   0.0000000   0.0000000), wk =   0.0056980
        k(   15) = (   0.1400000   0.0000000   0.0000000), wk =   0.0056980
        k(   16) = (   0.1500000   0.0000000   0.0000000), wk =   0.0056980
        k(   17) = (   0.1600000   0.0000000   0.0000000), wk =   0.0056980
        k(   18) = (   0.1700000   0.0000000   0.0000000), wk =   0.0056980
        k(   19) = (   0.1800000   0.0000000   0.0000000), wk =   0.0056980
        k(   20) = (   0.1900000   0.0000000   0.0000000), wk =   0.0056980
        k(   21) = (   0.2000000   0.0000000   0.0000000), wk =   0.0056980
        k(   22) = (   0.2100000   0.0000000   0.0000000), wk =   0.0056980
        k(   23) = (   0.2200000   0.0000000   0.0000000), wk =   0.0056980
        k(   24) = (   0.2300000   0.0000000   0.0000000), wk =   0.0056980
        k(   25) = (   0.2400000   0.0000000   0.0000000), wk =   0.0056980
        k(   26) = (   0.2500000   0.0000000   0.0000000), wk =   0.0056980
        k(   27) = (   0.2600000   0.0000000   0.0000000), wk =   0.0056980
        k(   28) = (   0.2700000   0.0000000   0.0000000), wk =   0.0056980
        k(   29) = (   0.2800000   0.0000000   0.0000000), wk =   0.0056980
        k(   30) = (   0.2900000   0.0000000   0.0000000), wk =   0.0056980
        k(   31) = (   0.3000000   0.0000000   0.0000000), wk =   0.0056980
        k(   32) = (   0.3100000   0.0000000   0.0000000), wk =   0.0056980
        k(   33) = (   0.3200000   0.0000000   0.0000000), wk =   0.0056980
        k(   34) = (   0.3300000   0.0000000   0.0000000), wk =   0.0056980
        k(   35) = (   0.3400000   0.0000000   0.0000000), wk =   0.0056980
        k(   36) = (   0.3500000   0.0000000   0.0000000), wk =   0.0056980
        k(   37) = (   0.3600000   0.0000000   0.0000000), wk =   0.0056980
        k(   38) = (   0.3700000   0.0000000   0.0000000), wk =   0.0056980
        k(   39) = (   0.3800000   0.0000000   0.0000000), wk =   0.0056980
        k(   40) = (   0.3900000   0.0000000   0.0000000), wk =   0.0056980
        k(   41) = (   0.4000000   0.0000000   0.0000000), wk =   0.0056980
        k(   42) = (   0.4100000   0.0000000   0.0000000), wk =   0.0056980
        k(   43) = (   0.4200000   0.0000000   0.0000000), wk =   0.0056980
        k(   44) = (   0.4300000   0.0000000   0.0000000), wk =   0.0056980
        k(   45) = (   0.4400000   0.0000000   0.0000000), wk =   0.0056980
        k(   46) = (   0.4500000   0.0000000   0.0000000), wk =   0.0056980
        k(   47) = (   0.4600000   0.0000000   0.0000000), wk =   0.0056980
        k(   48) = (   0.4700000   0.0000000   0.0000000), wk =   0.0056980
        k(   49) = (   0.4800000   0.0000000   0.0000000), wk =   0.0056980
        k(   50) = (   0.4900000   0.0000000   0.0000000), wk =   0.0056980
        k(   51) = (   0.5000000   0.0000000   0.0000000), wk =   0.0056980
        k(   52) = (   0.5000000   0.0100000   0.0000000), wk =   0.0056980
        k(   53) = (   0.5000000   0.0200000   0.0000000), wk =   0.0056980
        k(   54) = (   0.5000000   0.0300000   0.0000000), wk =   0.0056980
        k(   55) = (   0.5000000   0.0400000   0.0000000), wk =   0.0056980
        k(   56) = (   0.5000000   0.0500000   0.0000000), wk =   0.0056980
        k(   57) = (   0.5000000   0.0600000   0.0000000), wk =   0.0056980
        k(   58) = (   0.5000000   0.0700000   0.0000000), wk =   0.0056980
        k(   59) = (   0.5000000   0.0800000   0.0000000), wk =   0.0056980
        k(   60) = (   0.5000000   0.0900000   0.0000000), wk =   0.0056980
        k(   61) = (   0.5000000   0.1000000   0.0000000), wk =   0.0056980
        k(   62) = (   0.5000000   0.1100000   0.0000000), wk =   0.0056980
        k(   63) = (   0.5000000   0.1200000   0.0000000), wk =   0.0056980
        k(   64) = (   0.5000000   0.1300000   0.0000000), wk =   0.0056980
        k(   65) = (   0.5000000   0.1400000   0.0000000), wk =   0.0056980
        k(   66) = (   0.5000000   0.1500000   0.0000000), wk =   0.0056980
        k(   67) = (   0.5000000   0.1600000   0.0000000), wk =   0.0056980
        k(   68) = (   0.5000000   0.1700000   0.0000000), wk =   0.0056980
        k(   69) = (   0.5000000   0.1800000   0.0000000), wk =   0.0056980
        k(   70) = (   0.5000000   0.1900000   0.0000000), wk =   0.0056980
        k(   71) = (   0.5000000   0.2000000   0.0000000), wk =   0.0056980
        k(   72) = (   0.5000000   0.2100000   0.0000000), wk =   0.0056980
        k(   73) = (   0.5000000   0.2200000   0.0000000), wk =   0.0056980
        k(   74) = (   0.5000000   0.2300000   0.0000000), wk =   0.0056980
        k(   75) = (   0.5000000   0.2400000   0.0000000), wk =   0.0056980
        k(   76) = (   0.5000000   0.2500000   0.0000000), wk =   0.0056980
        k(   77) = (   0.5000000   0.2600000   0.0000000), wk =   0.0056980
        k(   78) = (   0.5000000   0.2700000   0.0000000), wk =   0.0056980
        k(   79) = (   0.5000000   0.2800000   0.0000000), wk =   0.0056980
        k(   80) = (   0.5000000   0.2900000   0.0000000), wk =   0.0056980
        k(   81) = (   0.5000000   0.3000000   0.0000000), wk =   0.0056980
        k(   82) = (   0.5000000   0.3100000   0.0000000), wk =   0.0056980
        k(   83) = (   0.5000000   0.3200000   0.0000000), wk =   0.0056980
        k(   84) = (   0.5000000   0.3300000   0.0000000), wk =   0.0056980
        k(   85) = (   0.5000000   0.3400000   0.0000000), wk =   0.0056980
        k(   86) = (   0.5000000   0.3500000   0.0000000), wk =   0.0056980
        k(   87) = (   0.5000000   0.3600000   0.0000000), wk =   0.0056980
        k(   88) = (   0.5000000   0.3700000   0.0000000), wk =   0.0056980
        k(   89) = (   0.5000000   0.3800000   0.0000000), wk =   0.0056980
        k(   90) = (   0.5000000   0.3900000   0.0000000), wk =   0.0056980
        k(   91) = (   0.5000000   0.4000000   0.0000000), wk =   0.0056980
        k(   92) = (   0.5000000   0.4100000   0.0000000), wk =   0.0056980
        k(   93) = (   0.5000000   0.4200000   0.0000000), wk =   0.0056980
        k(   94) = (   0.5000000   0.4300000   0.0000000), wk =   0.0056980
        k(   95) = (   0.5000000   0.4400000   0.0000000), wk =   0.0056980
        k(   96) = (   0.5000000   0.4500000   0.0000000), wk =   0.0056980
        k(   97) = (   0.5000000   0.4600000   0.0000000), wk =   0.0056980
        k(   98) = (   0.5000000   0.4700000   0.0000000), wk =   0.0056980
        k(   99) = (   0.5000000   0.4800000   0.0000000), wk =   0.0056980
        k(  100) = (   0.5000000   0.4900000   0.0000000), wk =   0.0056980
        k(  101) = (   0.5000000   0.5000000   0.0000000), wk =   0.0056980
        k(  102) = (   0.4900000   0.4900000   0.0000000), wk =   0.0056980
        k(  103) = (   0.4800000   0.4800000   0.0000000), wk =   0.0056980
        k(  104) = (   0.4700000   0.4700000   0.0000000), wk =   0.0056980
        k(  105) = (   0.4600000   0.4600000   0.0000000), wk =   0.0056980
        k(  106) = (   0.4500000   0.4500000   0.0000000), wk =   0.0056980
        k(  107) = (   0.4400000   0.4400000   0.0000000), wk =   0.0056980
        k(  108) = (   0.4300000   0.4300000   0.0000000), wk =   0.0056980
        k(  109) = (   0.4200000   0.4200000   0.0000000), wk =   0.0056980
        k(  110) = (   0.4100000   0.4100000   0.0000000), wk =   0.0056980
        k(  111) = (   0.4000000   0.4000000   0.0000000), wk =   0.0056980
        k(  112) = (   0.3900000   0.3900000   0.0000000), wk =   0.0056980
        k(  113) = (   0.3800000   0.3800000   0.0000000), wk =   0.0056980
        k(  114) = (   0.3700000   0.3700000   0.0000000), wk =   0.0056980
        k(  115) = (   0.3600000   0.3600000   0.0000000), wk =   0.0056980
        k(  116) = (   0.3500000   0.3500000   0.0000000), wk =   0.0056980
        k(  117) = (   0.3400000   0.3400000   0.0000000), wk =   0.0056980
        k(  118) = (   0.3300000   0.3300000   0.0000000), wk =   0.0056980
        k(  119) = (   0.3200000   0.3200000   0.0000000), wk =   0.0056980
        k(  120) = (   0.3100000   0.3100000   0.0000000), wk =   0.0056980
        k(  121) = (   0.3000000   0.3000000   0.0000000), wk =   0.0056980
        k(  122) = (   0.2900000   0.2900000   0.0000000), wk =   0.0056980
        k(  123) = (   0.2800000   0.2800000   0.0000000), wk =   0.0056980
        k(  124) = (   0.2700000   0.2700000   0.0000000), wk =   0.0056980
        k(  125) = (   0.2600000   0.2600000   0.0000000), wk =   0.0056980
        k(  126) = (   0.2500000   0.2500000   0.0000000), wk =   0.0056980
        k(  127) = (   0.2400000   0.2400000   0.0000000), wk =   0.0056980
        k(  128) = (   0.2300000   0.2300000   0.0000000), wk =   0.0056980
        k(  129) = (   0.2200000   0.2200000   0.0000000), wk =   0.0056980
        k(  130) = (   0.2100000   0.2100000   0.0000000), wk =   0.0056980
        k(  131) = (   0.2000000   0.2000000   0.0000000), wk =   0.0056980
        k(  132) = (   0.1900000   0.1900000   0.0000000), wk =   0.0056980
        k(  133) = (   0.1800000   0.1800000   0.0000000), wk =   0.0056980
        k(  134) = (   0.1700000   0.1700000   0.0000000), wk =   0.0056980
        k(  135) = (   0.1600000   0.1600000   0.0000000), wk =   0.0056980
        k(  136) = (   0.1500000   0.1500000   0.0000000), wk =   0.0056980
        k(  137) = (   0.1400000   0.1400000   0.0000000), wk =   0.0056980
        k(  138) = (   0.1300000   0.1300000   0.0000000), wk =   0.0056980
        k(  139) = (   0.1200000   0.1200000   0.0000000), wk =   0.0056980
        k(  140) = (   0.1100000   0.1100000   0.0000000), wk =   0.0056980
        k(  141) = (   0.1000000   0.1000000   0.0000000), wk =   0.0056980
        k(  142) = (   0.0900000   0.0900000   0.0000000), wk =   0.0056980
        k(  143) = (   0.0800000   0.0800000   0.0000000), wk =   0.0056980
        k(  144) = (   0.0700000   0.0700000   0.0000000), wk =   0.0056980
        k(  145) = (   0.0600000   0.0600000   0.0000000), wk =   0.0056980
        k(  146) = (   0.0500000   0.0500000   0.0000000), wk =   0.0056980
        k(  147) = (   0.0400000   0.0400000   0.0000000), wk =   0.0056980
        k(  148) = (   0.0300000   0.0300000   0.0000000), wk =   0.0056980
        k(  149) = (   0.0200000   0.0200000   0.0000000), wk =   0.0056980
        k(  150) = (   0.0100000   0.0100000   0.0000000), wk =   0.0056980
        k(  151) = (   0.0000000   0.0000000   0.0000000), wk =   0.0056980
        k(  152) = (   0.0000000   0.0000000   0.0100000), wk =   0.0056980
        k(  153) = (   0.0000000   0.0000000   0.0200000), wk =   0.0056980
        k(  154) = (   0.0000000   0.0000000   0.0300000), wk =   0.0056980
        k(  155) = (   0.0000000   0.0000000   0.0400000), wk =   0.0056980
        k(  156) = (   0.0000000   0.0000000   0.0500000), wk =   0.0056980
        k(  157) = (   0.0000000   0.0000000   0.0600000), wk =   0.0056980
        k(  158) = (   0.0000000   0.0000000   0.0700000), wk =   0.0056980
        k(  159) = (   0.0000000   0.0000000   0.0800000), wk =   0.0056980
        k(  160) = (   0.0000000   0.0000000   0.0900000), wk =   0.0056980
        k(  161) = (   0.0000000   0.0000000   0.1000000), wk =   0.0056980
        k(  162) = (   0.0000000   0.0000000   0.1100000), wk =   0.0056980
        k(  163) = (   0.0000000   0.0000000   0.1200000), wk =   0.0056980
        k(  164) = (   0.0000000   0.0000000   0.1300000), wk =   0.0056980
        k(  165) = (   0.0000000   0.0000000   0.1400000), wk =   0.0056980
        k(  166) = (   0.0000000   0.0000000   0.1500000), wk =   0.0056980
        k(  167) = (   0.0000000   0.0000000   0.1600000), wk =   0.0056980
        k(  168) = (   0.0000000   0.0000000   0.1700000), wk =   0.0056980
        k(  169) = (   0.0000000   0.0000000   0.1800000), wk =   0.0056980
        k(  170) = (   0.0000000   0.0000000   0.1900000), wk =   0.0056980
        k(  171) = (   0.0000000   0.0000000   0.2000000), wk =   0.0056980
        k(  172) = (   0.0000000   0.0000000   0.2100000), wk =   0.0056980
        k(  173) = (   0.0000000   0.0000000   0.2200000), wk =   0.0056980
        k(  174) = (   0.0000000   0.0000000   0.2300000), wk =   0.0056980
        k(  175) = (   0.0000000   0.0000000   0.2400000), wk =   0.0056980
        k(  176) = (   0.0000000   0.0000000   0.2500000), wk =   0.0056980
        k(  177) = (   0.0000000   0.0000000   0.2600000), wk =   0.0056980
        k(  178) = (   0.0000000   0.0000000   0.2700000), wk =   0.0056980
        k(  179) = (   0.0000000   0.0000000   0.2800000), wk =   0.0056980
        k(  180) = (   0.0000000   0.0000000   0.2900000), wk =   0.0056980
        k(  181) = (   0.0000000   0.0000000   0.3000000), wk =   0.0056980
        k(  182) = (   0.0000000   0.0000000   0.3100000), wk =   0.0056980
        k(  183) = (   0.0000000   0.0000000   0.3200000), wk =   0.0056980
        k(  184) = (   0.0000000   0.0000000   0.3300000), wk =   0.0056980
        k(  185) = (   0.0000000   0.0000000   0.3400000), wk =   0.0056980
        k(  186) = (   0.0000000   0.0000000   0.3500000), wk =   0.0056980
        k(  187) = (   0.0000000   0.0000000   0.3600000), wk =   0.0056980
        k(  188) = (   0.0000000   0.0000000   0.3700000), wk =   0.0056980
        k(  189) = (   0.0000000   0.0000000   0.3800000), wk =   0.0056980
        k(  190) = (   0.0000000   0.0000000   0.3900000), wk =   0.0056980
        k(  191) = (   0.0000000   0.0000000   0.4000000), wk =   0.0056980
        k(  192) = (   0.0000000   0.0000000   0.4100000), wk =   0.0056980
        k(  193) = (   0.0000000   0.0000000   0.4200000), wk =   0.0056980
        k(  194) = (   0.0000000   0.0000000   0.4300000), wk =   0.0056980
        k(  195) = (   0.0000000   0.0000000   0.4400000), wk =   0.0056980
        k(  196) = (   0.0000000   0.0000000   0.4500000), wk =   0.0056980
        k(  197) = (   0.0000000   0.0000000   0.4600000), wk =   0.0056980
        k(  198) = (   0.0000000   0.0000000   0.4700000), wk =   0.0056980
        k(  199) = (   0.0000000   0.0000000   0.4800000), wk =   0.0056980
        k(  200) = (   0.0000000   0.0000000   0.4900000), wk =   0.0056980
        k(  201) = (   0.0000000   0.0000000   0.5000000), wk =   0.0056980
        k(  202) = (   0.0100000   0.0000000   0.5000000), wk =   0.0056980
        k(  203) = (   0.0200000   0.0000000   0.5000000), wk =   0.0056980
        k(  204) = (   0.0300000   0.0000000   0.5000000), wk =   0.0056980
        k(  205) = (   0.0400000   0.0000000   0.5000000), wk =   0.0056980
        k(  206) = (   0.0500000   0.0000000   0.5000000), wk =   0.0056980
        k(  207) = (   0.0600000   0.0000000   0.5000000), wk =   0.0056980
        k(  208) = (   0.0700000   0.0000000   0.5000000), wk =   0.0056980
        k(  209) = (   0.0800000   0.0000000   0.5000000), wk =   0.0056980
        k(  210) = (   0.0900000   0.0000000   0.5000000), wk =   0.0056980
        k(  211) = (   0.1000000   0.0000000   0.5000000), wk =   0.0056980
        k(  212) = (   0.1100000   0.0000000   0.5000000), wk =   0.0056980
        k(  213) = (   0.1200000   0.0000000   0.5000000), wk =   0.0056980
        k(  214) = (   0.1300000   0.0000000   0.5000000), wk =   0.0056980
        k(  215) = (   0.1400000   0.0000000   0.5000000), wk =   0.0056980
        k(  216) = (   0.1500000   0.0000000   0.5000000), wk =   0.0056980
        k(  217) = (   0.1600000   0.0000000   0.5000000), wk =   0.0056980
        k(  218) = (   0.1700000   0.0000000   0.5000000), wk =   0.0056980
        k(  219) = (   0.1800000   0.0000000   0.5000000), wk =   0.0056980
        k(  220) = (   0.1900000   0.0000000   0.5000000), wk =   0.0056980
        k(  221) = (   0.2000000   0.0000000   0.5000000), wk =   0.0056980
        k(  222) = (   0.2100000   0.0000000   0.5000000), wk =   0.0056980
        k(  223) = (   0.2200000   0.0000000   0.5000000), wk =   0.0056980
        k(  224) = (   0.2300000   0.0000000   0.5000000), wk =   0.0056980
        k(  225) = (   0.2400000   0.0000000   0.5000000), wk =   0.0056980
        k(  226) = (   0.2500000   0.0000000   0.5000000), wk =   0.0056980
        k(  227) = (   0.2600000   0.0000000   0.5000000), wk =   0.0056980
        k(  228) = (   0.2700000   0.0000000   0.5000000), wk =   0.0056980
        k(  229) = (   0.2800000   0.0000000   0.5000000), wk =   0.0056980
        k(  230) = (   0.2900000   0.0000000   0.5000000), wk =   0.0056980
        k(  231) = (   0.3000000   0.0000000   0.5000000), wk =   0.0056980
        k(  232) = (   0.3100000   0.0000000   0.5000000), wk =   0.0056980
        k(  233) = (   0.3200000   0.0000000   0.5000000), wk =   0.0056980
        k(  234) = (   0.3300000   0.0000000   0.5000000), wk =   0.0056980
        k(  235) = (   0.3400000   0.0000000   0.5000000), wk =   0.0056980
        k(  236) = (   0.3500000   0.0000000   0.5000000), wk =   0.0056980
        k(  237) = (   0.3600000   0.0000000   0.5000000), wk =   0.0056980
        k(  238) = (   0.3700000   0.0000000   0.5000000), wk =   0.0056980
        k(  239) = (   0.3800000   0.0000000   0.5000000), wk =   0.0056980
        k(  240) = (   0.3900000   0.0000000   0.5000000), wk =   0.0056980
        k(  241) = (   0.4000000   0.0000000   0.5000000), wk =   0.0056980
        k(  242) = (   0.4100000   0.0000000   0.5000000), wk =   0.0056980
        k(  243) = (   0.4200000   0.0000000   0.5000000), wk =   0.0056980
        k(  244) = (   0.4300000   0.0000000   0.5000000), wk =   0.0056980
        k(  245) = (   0.4400000   0.0000000   0.5000000), wk =   0.0056980
        k(  246) = (   0.4500000   0.0000000   0.5000000), wk =   0.0056980
        k(  247) = (   0.4600000   0.0000000   0.5000000), wk =   0.0056980
        k(  248) = (   0.4700000   0.0000000   0.5000000), wk =   0.0056980
        k(  249) = (   0.4800000   0.0000000   0.5000000), wk =   0.0056980
        k(  250) = (   0.4900000   0.0000000   0.5000000), wk =   0.0056980
        k(  251) = (   0.5000000   0.0000000   0.5000000), wk =   0.0056980
        k(  252) = (   0.5000000   0.0100000   0.5000000), wk =   0.0056980
        k(  253) = (   0.5000000   0.0200000   0.5000000), wk =   0.0056980
        k(  254) = (   0.5000000   0.0300000   0.5000000), wk =   0.0056980
        k(  255) = (   0.5000000   0.0400000   0.5000000), wk =   0.0056980
        k(  256) = (   0.5000000   0.0500000   0.5000000), wk =   0.0056980
        k(  257) = (   0.5000000   0.0600000   0.5000000), wk =   0.0056980
        k(  258) = (   0.5000000   0.0700000   0.5000000), wk =   0.0056980
        k(  259) = (   0.5000000   0.0800000   0.5000000), wk =   0.0056980
        k(  260) = (   0.5000000   0.0900000   0.5000000), wk =   0.0056980
        k(  261) = (   0.5000000   0.1000000   0.5000000), wk =   0.0056980
        k(  262) = (   0.5000000   0.1100000   0.5000000), wk =   0.0056980
        k(  263) = (   0.5000000   0.1200000   0.5000000), wk =   0.0056980
        k(  264) = (   0.5000000   0.1300000   0.5000000), wk =   0.0056980
        k(  265) = (   0.5000000   0.1400000   0.5000000), wk =   0.0056980
        k(  266) = (   0.5000000   0.1500000   0.5000000), wk =   0.0056980
        k(  267) = (   0.5000000   0.1600000   0.5000000), wk =   0.0056980
        k(  268) = (   0.5000000   0.1700000   0.5000000), wk =   0.0056980
        k(  269) = (   0.5000000   0.1800000   0.5000000), wk =   0.0056980
        k(  270) = (   0.5000000   0.1900000   0.5000000), wk =   0.0056980
        k(  271) = (   0.5000000   0.2000000   0.5000000), wk =   0.0056980
        k(  272) = (   0.5000000   0.2100000   0.5000000), wk =   0.0056980
        k(  273) = (   0.5000000   0.2200000   0.5000000), wk =   0.0056980
        k(  274) = (   0.5000000   0.2300000   0.5000000), wk =   0.0056980
        k(  275) = (   0.5000000   0.2400000   0.5000000), wk =   0.0056980
        k(  276) = (   0.5000000   0.2500000   0.5000000), wk =   0.0056980
        k(  277) = (   0.5000000   0.2600000   0.5000000), wk =   0.0056980
        k(  278) = (   0.5000000   0.2700000   0.5000000), wk =   0.0056980
        k(  279) = (   0.5000000   0.2800000   0.5000000), wk =   0.0056980
        k(  280) = (   0.5000000   0.2900000   0.5000000), wk =   0.0056980
        k(  281) = (   0.5000000   0.3000000   0.5000000), wk =   0.0056980
        k(  282) = (   0.5000000   0.3100000   0.5000000), wk =   0.0056980
        k(  283) = (   0.5000000   0.3200000   0.5000000), wk =   0.0056980
        k(  284) = (   0.5000000   0.3300000   0.5000000), wk =   0.0056980
        k(  285) = (   0.5000000   0.3400000   0.5000000), wk =   0.0056980
        k(  286) = (   0.5000000   0.3500000   0.5000000), wk =   0.0056980
        k(  287) = (   0.5000000   0.3600000   0.5000000), wk =   0.0056980
        k(  288) = (   0.5000000   0.3700000   0.5000000), wk =   0.0056980
        k(  289) = (   0.5000000   0.3800000   0.5000000), wk =   0.0056980
        k(  290) = (   0.5000000   0.3900000   0.5000000), wk =   0.0056980
        k(  291) = (   0.5000000   0.4000000   0.5000000), wk =   0.0056980
        k(  292) = (   0.5000000   0.4100000   0.5000000), wk =   0.0056980
        k(  293) = (   0.5000000   0.4200000   0.5000000), wk =   0.0056980
        k(  294) = (   0.5000000   0.4300000   0.5000000), wk =   0.0056980
        k(  295) = (   0.5000000   0.4400000   0.5000000), wk =   0.0056980
        k(  296) = (   0.5000000   0.4500000   0.5000000), wk =   0.0056980
        k(  297) = (   0.5000000   0.4600000   0.5000000), wk =   0.0056980
        k(  298) = (   0.5000000   0.4700000   0.5000000), wk =   0.0056980
        k(  299) = (   0.5000000   0.4800000   0.5000000), wk =   0.0056980
        k(  300) = (   0.5000000   0.4900000   0.5000000), wk =   0.0056980
        k(  301) = (   0.5000000   0.5000000   0.5000000), wk =   0.0056980
        k(  302) = (   0.4900000   0.4900000   0.5000000), wk =   0.0056980
        k(  303) = (   0.4800000   0.4800000   0.5000000), wk =   0.0056980
        k(  304) = (   0.4700000   0.4700000   0.5000000), wk =   0.0056980
        k(  305) = (   0.4600000   0.4600000   0.5000000), wk =   0.0056980
        k(  306) = (   0.4500000   0.4500000   0.5000000), wk =   0.0056980
        k(  307) = (   0.4400000   0.4400000   0.5000000), wk =   0.0056980
        k(  308) = (   0.4300000   0.4300000   0.5000000), wk =   0.0056980
        k(  309) = (   0.4200000   0.4200000   0.5000000), wk =   0.0056980
        k(  310) = (   0.4100000   0.4100000   0.5000000), wk =   0.0056980
        k(  311) = (   0.4000000   0.4000000   0.5000000), wk =   0.0056980
        k(  312) = (   0.3900000   0.3900000   0.5000000), wk =   0.0056980
        k(  313) = (   0.3800000   0.3800000   0.5000000), wk =   0.0056980
        k(  314) = (   0.3700000   0.3700000   0.5000000), wk =   0.0056980
        k(  315) = (   0.3600000   0.3600000   0.5000000), wk =   0.0056980
        k(  316) = (   0.3500000   0.3500000   0.5000000), wk =   0.0056980
        k(  317) = (   0.3400000   0.3400000   0.5000000), wk =   0.0056980
        k(  318) = (   0.3300000   0.3300000   0.5000000), wk =   0.0056980
        k(  319) = (   0.3200000   0.3200000   0.5000000), wk =   0.0056980
        k(  320) = (   0.3100000   0.3100000   0.5000000), wk =   0.0056980
        k(  321) = (   0.3000000   0.3000000   0.5000000), wk =   0.0056980
        k(  322) = (   0.2900000   0.2900000   0.5000000), wk =   0.0056980
        k(  323) = (   0.2800000   0.2800000   0.5000000), wk =   0.0056980
        k(  324) = (   0.2700000   0.2700000   0.5000000), wk =   0.0056980
        k(  325) = (   0.2600000   0.2600000   0.5000000), wk =   0.0056980
        k(  326) = (   0.2500000   0.2500000   0.5000000), wk =   0.0056980
        k(  327) = (   0.2400000   0.2400000   0.5000000), wk =   0.0056980
        k(  328) = (   0.2300000   0.2300000   0.5000000), wk =   0.0056980
        k(  329) = (   0.2200000   0.2200000   0.5000000), wk =   0.0056980
        k(  330) = (   0.2100000   0.2100000   0.5000000), wk =   0.0056980
        k(  331) = (   0.2000000   0.2000000   0.5000000), wk =   0.0056980
        k(  332) = (   0.1900000   0.1900000   0.5000000), wk =   0.0056980
        k(  333) = (   0.1800000   0.1800000   0.5000000), wk =   0.0056980
        k(  334) = (   0.1700000   0.1700000   0.5000000), wk =   0.0056980
        k(  335) = (   0.1600000   0.1600000   0.5000000), wk =   0.0056980
        k(  336) = (   0.1500000   0.1500000   0.5000000), wk =   0.0056980
        k(  337) = (   0.1400000   0.1400000   0.5000000), wk =   0.0056980
        k(  338) = (   0.1300000   0.1300000   0.5000000), wk =   0.0056980
        k(  339) = (   0.1200000   0.1200000   0.5000000), wk =   0.0056980
        k(  340) = (   0.1100000   0.1100000   0.5000000), wk =   0.0056980
        k(  341) = (   0.1000000   0.1000000   0.5000000), wk =   0.0056980
        k(  342) = (   0.0900000   0.0900000   0.5000000), wk =   0.0056980
        k(  343) = (   0.0800000   0.0800000   0.5000000), wk =   0.0056980
        k(  344) = (   0.0700000   0.0700000   0.5000000), wk =   0.0056980
        k(  345) = (   0.0600000   0.0600000   0.5000000), wk =   0.0056980
        k(  346) = (   0.0500000   0.0500000   0.5000000), wk =   0.0056980
        k(  347) = (   0.0400000   0.0400000   0.5000000), wk =   0.0056980
        k(  348) = (   0.0300000   0.0300000   0.5000000), wk =   0.0056980
        k(  349) = (   0.0200000   0.0200000   0.5000000), wk =   0.0056980
        k(  350) = (   0.0100000   0.0100000   0.5000000), wk =   0.0056980
        k(  351) = (   0.0000000   0.0000000   0.5000000), wk =   0.0056980

                       cryst. coord.
        k(    1) = (   0.0000000   0.0000000   0.0000000), wk =   0.0056980
        k(    2) = (   0.0100000   0.0000000   0.0000000), wk =   0.0056980
        k(    3) = (   0.0200000   0.0000000   0.0000000), wk =   0.0056980
        k(    4) = (   0.0300000   0.0000000   0.0000000), wk =   0.0056980
        k(    5) = (   0.0400000   0.0000000   0.0000000), wk =   0.0056980
        k(    6) = (   0.0500000   0.0000000   0.0000000), wk =   0.0056980
        k(    7) = (   0.0600000   0.0000000   0.0000000), wk =   0.0056980
        k(    8) = (   0.0700000   0.0000000   0.0000000), wk =   0.0056980
        k(    9) = (   0.0800000   0.0000000   0.0000000), wk =   0.0056980
        k(   10) = (   0.0900000   0.0000000   0.0000000), wk =   0.0056980
        k(   11) = (   0.1000000   0.0000000   0.0000000), wk =   0.0056980
        k(   12) = (   0.1100000   0.0000000   0.0000000), wk =   0.0056980
        k(   13) = (   0.1200000   0.0000000   0.0000000), wk =   0.0056980
        k(   14) = (   0.1300000   0.0000000   0.0000000), wk =   0.0056980
        k(   15) = (   0.1400000   0.0000000   0.0000000), wk =   0.0056980
        k(   16) = (   0.1500000   0.0000000   0.0000000), wk =   0.0056980
        k(   17) = (   0.1600000   0.0000000   0.0000000), wk =   0.0056980
        k(   18) = (   0.1700000   0.0000000   0.0000000), wk =   0.0056980
        k(   19) = (   0.1800000   0.0000000   0.0000000), wk =   0.0056980
        k(   20) = (   0.1900000   0.0000000   0.0000000), wk =   0.0056980
        k(   21) = (   0.2000000   0.0000000   0.0000000), wk =   0.0056980
        k(   22) = (   0.2100000   0.0000000   0.0000000), wk =   0.0056980
        k(   23) = (   0.2200000   0.0000000   0.0000000), wk =   0.0056980
        k(   24) = (   0.2300000   0.0000000   0.0000000), wk =   0.0056980
        k(   25) = (   0.2400000   0.0000000   0.0000000), wk =   0.0056980
        k(   26) = (   0.2500000   0.0000000   0.0000000), wk =   0.0056980
        k(   27) = (   0.2600000   0.0000000   0.0000000), wk =   0.0056980
        k(   28) = (   0.2700000   0.0000000   0.0000000), wk =   0.0056980
        k(   29) = (   0.2800000   0.0000000   0.0000000), wk =   0.0056980
        k(   30) = (   0.2900000   0.0000000   0.0000000), wk =   0.0056980
        k(   31) = (   0.3000000   0.0000000   0.0000000), wk =   0.0056980
        k(   32) = (   0.3100000   0.0000000   0.0000000), wk =   0.0056980
        k(   33) = (   0.3200000   0.0000000   0.0000000), wk =   0.0056980
        k(   34) = (   0.3300000   0.0000000   0.0000000), wk =   0.0056980
        k(   35) = (   0.3400000   0.0000000   0.0000000), wk =   0.0056980
        k(   36) = (   0.3500000   0.0000000   0.0000000), wk =   0.0056980
        k(   37) = (   0.3600000   0.0000000   0.0000000), wk =   0.0056980
        k(   38) = (   0.3700000   0.0000000   0.0000000), wk =   0.0056980
        k(   39) = (   0.3800000   0.0000000   0.0000000), wk =   0.0056980
        k(   40) = (   0.3900000   0.0000000   0.0000000), wk =   0.0056980
        k(   41) = (   0.4000000   0.0000000   0.0000000), wk =   0.0056980
        k(   42) = (   0.4100000   0.0000000   0.0000000), wk =   0.0056980
        k(   43) = (   0.4200000   0.0000000   0.0000000), wk =   0.0056980
        k(   44) = (   0.4300000   0.0000000   0.0000000), wk =   0.0056980
        k(   45) = (   0.4400000   0.0000000   0.0000000), wk =   0.0056980
        k(   46) = (   0.4500000   0.0000000   0.0000000), wk =   0.0056980
        k(   47) = (   0.4600000   0.0000000   0.0000000), wk =   0.0056980
        k(   48) = (   0.4700000   0.0000000   0.0000000), wk =   0.0056980
        k(   49) = (   0.4800000   0.0000000   0.0000000), wk =   0.0056980
        k(   50) = (   0.4900000   0.0000000   0.0000000), wk =   0.0056980
        k(   51) = (   0.5000000   0.0000000   0.0000000), wk =   0.0056980
        k(   52) = (   0.5000000   0.0100000   0.0000000), wk =   0.0056980
        k(   53) = (   0.5000000   0.0200000   0.0000000), wk =   0.0056980
        k(   54) = (   0.5000000   0.0300000   0.0000000), wk =   0.0056980
        k(   55) = (   0.5000000   0.0400000   0.0000000), wk =   0.0056980
        k(   56) = (   0.5000000   0.0500000   0.0000000), wk =   0.0056980
        k(   57) = (   0.5000000   0.0600000   0.0000000), wk =   0.0056980
        k(   58) = (   0.5000000   0.0700000   0.0000000), wk =   0.0056980
        k(   59) = (   0.5000000   0.0800000   0.0000000), wk =   0.0056980
        k(   60) = (   0.5000000   0.0900000   0.0000000), wk =   0.0056980
        k(   61) = (   0.5000000   0.1000000   0.0000000), wk =   0.0056980
        k(   62) = (   0.5000000   0.1100000   0.0000000), wk =   0.0056980
        k(   63) = (   0.5000000   0.1200000   0.0000000), wk =   0.0056980
        k(   64) = (   0.5000000   0.1300000   0.0000000), wk =   0.0056980
        k(   65) = (   0.5000000   0.1400000   0.0000000), wk =   0.0056980
        k(   66) = (   0.5000000   0.1500000   0.0000000), wk =   0.0056980
        k(   67) = (   0.5000000   0.1600000   0.0000000), wk =   0.0056980
        k(   68) = (   0.5000000   0.1700000   0.0000000), wk =   0.0056980
        k(   69) = (   0.5000000   0.1800000   0.0000000), wk =   0.0056980
        k(   70) = (   0.5000000   0.1900000   0.0000000), wk =   0.0056980
        k(   71) = (   0.5000000   0.2000000   0.0000000), wk =   0.0056980
        k(   72) = (   0.5000000   0.2100000   0.0000000), wk =   0.0056980
        k(   73) = (   0.5000000   0.2200000   0.0000000), wk =   0.0056980
        k(   74) = (   0.5000000   0.2300000   0.0000000), wk =   0.0056980
        k(   75) = (   0.5000000   0.2400000   0.0000000), wk =   0.0056980
        k(   76) = (   0.5000000   0.2500000   0.0000000), wk =   0.0056980
        k(   77) = (   0.5000000   0.2600000   0.0000000), wk =   0.0056980
        k(   78) = (   0.5000000   0.2700000   0.0000000), wk =   0.0056980
        k(   79) = (   0.5000000   0.2800000   0.0000000), wk =   0.0056980
        k(   80) = (   0.5000000   0.2900000   0.0000000), wk =   0.0056980
        k(   81) = (   0.5000000   0.3000000   0.0000000), wk =   0.0056980
        k(   82) = (   0.5000000   0.3100000   0.0000000), wk =   0.0056980
        k(   83) = (   0.5000000   0.3200000   0.0000000), wk =   0.0056980
        k(   84) = (   0.5000000   0.3300000   0.0000000), wk =   0.0056980
        k(   85) = (   0.5000000   0.3400000   0.0000000), wk =   0.0056980
        k(   86) = (   0.5000000   0.3500000   0.0000000), wk =   0.0056980
        k(   87) = (   0.5000000   0.3600000   0.0000000), wk =   0.0056980
        k(   88) = (   0.5000000   0.3700000   0.0000000), wk =   0.0056980
        k(   89) = (   0.5000000   0.3800000   0.0000000), wk =   0.0056980
        k(   90) = (   0.5000000   0.3900000   0.0000000), wk =   0.0056980
        k(   91) = (   0.5000000   0.4000000   0.0000000), wk =   0.0056980
        k(   92) = (   0.5000000   0.4100000   0.0000000), wk =   0.0056980
        k(   93) = (   0.5000000   0.4200000   0.0000000), wk =   0.0056980
        k(   94) = (   0.5000000   0.4300000   0.0000000), wk =   0.0056980
        k(   95) = (   0.5000000   0.4400000   0.0000000), wk =   0.0056980
        k(   96) = (   0.5000000   0.4500000   0.0000000), wk =   0.0056980
        k(   97) = (   0.5000000   0.4600000   0.0000000), wk =   0.0056980
        k(   98) = (   0.5000000   0.4700000   0.0000000), wk =   0.0056980
        k(   99) = (   0.5000000   0.4800000   0.0000000), wk =   0.0056980
        k(  100) = (   0.5000000   0.4900000   0.0000000), wk =   0.0056980
        k(  101) = (   0.5000000   0.5000000   0.0000000), wk =   0.0056980
        k(  102) = (   0.4900000   0.4900000   0.0000000), wk =   0.0056980
        k(  103) = (   0.4800000   0.4800000   0.0000000), wk =   0.0056980
        k(  104) = (   0.4700000   0.4700000   0.0000000), wk =   0.0056980
        k(  105) = (   0.4600000   0.4600000   0.0000000), wk =   0.0056980
        k(  106) = (   0.4500000   0.4500000   0.0000000), wk =   0.0056980
        k(  107) = (   0.4400000   0.4400000   0.0000000), wk =   0.0056980
        k(  108) = (   0.4300000   0.4300000   0.0000000), wk =   0.0056980
        k(  109) = (   0.4200000   0.4200000   0.0000000), wk =   0.0056980
        k(  110) = (   0.4100000   0.4100000   0.0000000), wk =   0.0056980
        k(  111) = (   0.4000000   0.4000000   0.0000000), wk =   0.0056980
        k(  112) = (   0.3900000   0.3900000   0.0000000), wk =   0.0056980
        k(  113) = (   0.3800000   0.3800000   0.0000000), wk =   0.0056980
        k(  114) = (   0.3700000   0.3700000   0.0000000), wk =   0.0056980
        k(  115) = (   0.3600000   0.3600000   0.0000000), wk =   0.0056980
        k(  116) = (   0.3500000   0.3500000   0.0000000), wk =   0.0056980
        k(  117) = (   0.3400000   0.3400000   0.0000000), wk =   0.0056980
        k(  118) = (   0.3300000   0.3300000   0.0000000), wk =   0.0056980
        k(  119) = (   0.3200000   0.3200000   0.0000000), wk =   0.0056980
        k(  120) = (   0.3100000   0.3100000   0.0000000), wk =   0.0056980
        k(  121) = (   0.3000000   0.3000000   0.0000000), wk =   0.0056980
        k(  122) = (   0.2900000   0.2900000   0.0000000), wk =   0.0056980
        k(  123) = (   0.2800000   0.2800000   0.0000000), wk =   0.0056980
        k(  124) = (   0.2700000   0.2700000   0.0000000), wk =   0.0056980
        k(  125) = (   0.2600000   0.2600000   0.0000000), wk =   0.0056980
        k(  126) = (   0.2500000   0.2500000   0.0000000), wk =   0.0056980
        k(  127) = (   0.2400000   0.2400000   0.0000000), wk =   0.0056980
        k(  128) = (   0.2300000   0.2300000   0.0000000), wk =   0.0056980
        k(  129) = (   0.2200000   0.2200000   0.0000000), wk =   0.0056980
        k(  130) = (   0.2100000   0.2100000   0.0000000), wk =   0.0056980
        k(  131) = (   0.2000000   0.2000000   0.0000000), wk =   0.0056980
        k(  132) = (   0.1900000   0.1900000   0.0000000), wk =   0.0056980
        k(  133) = (   0.1800000   0.1800000   0.0000000), wk =   0.0056980
        k(  134) = (   0.1700000   0.1700000   0.0000000), wk =   0.0056980
        k(  135) = (   0.1600000   0.1600000   0.0000000), wk =   0.0056980
        k(  136) = (   0.1500000   0.1500000   0.0000000), wk =   0.0056980
        k(  137) = (   0.1400000   0.1400000   0.0000000), wk =   0.0056980
        k(  138) = (   0.1300000   0.1300000   0.0000000), wk =   0.0056980
        k(  139) = (   0.1200000   0.1200000   0.0000000), wk =   0.0056980
        k(  140) = (   0.1100000   0.1100000   0.0000000), wk =   0.0056980
        k(  141) = (   0.1000000   0.1000000   0.0000000), wk =   0.0056980
        k(  142) = (   0.0900000   0.0900000   0.0000000), wk =   0.0056980
        k(  143) = (   0.0800000   0.0800000   0.0000000), wk =   0.0056980
        k(  144) = (   0.0700000   0.0700000   0.0000000), wk =   0.0056980
        k(  145) = (   0.0600000   0.0600000   0.0000000), wk =   0.0056980
        k(  146) = (   0.0500000   0.0500000   0.0000000), wk =   0.0056980
        k(  147) = (   0.0400000   0.0400000   0.0000000), wk =   0.0056980
        k(  148) = (   0.0300000   0.0300000   0.0000000), wk =   0.0056980
        k(  149) = (   0.0200000   0.0200000   0.0000000), wk =   0.0056980
        k(  150) = (   0.0100000   0.0100000   0.0000000), wk =   0.0056980
        k(  151) = (   0.0000000   0.0000000   0.0000000), wk =   0.0056980
        k(  152) = (   0.0000000   0.0000000   0.0100000), wk =   0.0056980
        k(  153) = (   0.0000000   0.0000000   0.0200000), wk =   0.0056980
        k(  154) = (   0.0000000   0.0000000   0.0300000), wk =   0.0056980
        k(  155) = (   0.0000000   0.0000000   0.0400000), wk =   0.0056980
        k(  156) = (   0.0000000   0.0000000   0.0500000), wk =   0.0056980
        k(  157) = (   0.0000000   0.0000000   0.0600000), wk =   0.0056980
        k(  158) = (   0.0000000   0.0000000   0.0700000), wk =   0.0056980
        k(  159) = (   0.0000000   0.0000000   0.0800000), wk =   0.0056980
        k(  160) = (   0.0000000   0.0000000   0.0900000), wk =   0.0056980
        k(  161) = (   0.0000000   0.0000000   0.1000000), wk =   0.0056980
        k(  162) = (   0.0000000   0.0000000   0.1100000), wk =   0.0056980
        k(  163) = (   0.0000000   0.0000000   0.1200000), wk =   0.0056980
        k(  164) = (   0.0000000   0.0000000   0.1300000), wk =   0.0056980
        k(  165) = (   0.0000000   0.0000000   0.1400000), wk =   0.0056980
        k(  166) = (   0.0000000   0.0000000   0.1500000), wk =   0.0056980
        k(  167) = (   0.0000000   0.0000000   0.1600000), wk =   0.0056980
        k(  168) = (   0.0000000   0.0000000   0.1700000), wk =   0.0056980
        k(  169) = (   0.0000000   0.0000000   0.1800000), wk =   0.0056980
        k(  170) = (   0.0000000   0.0000000   0.1900000), wk =   0.0056980
        k(  171) = (   0.0000000   0.0000000   0.2000000), wk =   0.0056980
        k(  172) = (   0.0000000   0.0000000   0.2100000), wk =   0.0056980
        k(  173) = (   0.0000000   0.0000000   0.2200000), wk =   0.0056980
        k(  174) = (   0.0000000   0.0000000   0.2300000), wk =   0.0056980
        k(  175) = (   0.0000000   0.0000000   0.2400000), wk =   0.0056980
        k(  176) = (   0.0000000   0.0000000   0.2500000), wk =   0.0056980
        k(  177) = (   0.0000000   0.0000000   0.2600000), wk =   0.0056980
        k(  178) = (   0.0000000   0.0000000   0.2700000), wk =   0.0056980
        k(  179) = (   0.0000000   0.0000000   0.2800000), wk =   0.0056980
        k(  180) = (   0.0000000   0.0000000   0.2900000), wk =   0.0056980
        k(  181) = (   0.0000000   0.0000000   0.3000000), wk =   0.0056980
        k(  182) = (   0.0000000   0.0000000   0.3100000), wk =   0.0056980
        k(  183) = (   0.0000000   0.0000000   0.3200000), wk =   0.0056980
        k(  184) = (   0.0000000   0.0000000   0.3300000), wk =   0.0056980
        k(  185) = (   0.0000000   0.0000000   0.3400000), wk =   0.0056980
        k(  186) = (   0.0000000   0.0000000   0.3500000), wk =   0.0056980
        k(  187) = (   0.0000000   0.0000000   0.3600000), wk =   0.0056980
        k(  188) = (   0.0000000   0.0000000   0.3700000), wk =   0.0056980
        k(  189) = (   0.0000000   0.0000000   0.3800000), wk =   0.0056980
        k(  190) = (   0.0000000   0.0000000   0.3900000), wk =   0.0056980
        k(  191) = (   0.0000000   0.0000000   0.4000000), wk =   0.0056980
        k(  192) = (   0.0000000   0.0000000   0.4100000), wk =   0.0056980
        k(  193) = (   0.0000000   0.0000000   0.4200000), wk =   0.0056980
        k(  194) = (   0.0000000   0.0000000   0.4300000), wk =   0.0056980
        k(  195) = (   0.0000000   0.0000000   0.4400000), wk =   0.0056980
        k(  196) = (   0.0000000   0.0000000   0.4500000), wk =   0.0056980
        k(  197) = (   0.0000000   0.0000000   0.4600000), wk =   0.0056980
        k(  198) = (   0.0000000   0.0000000   0.4700000), wk =   0.0056980
        k(  199) = (   0.0000000   0.0000000   0.4800000), wk =   0.0056980
        k(  200) = (   0.0000000   0.0000000   0.4900000), wk =   0.0056980
        k(  201) = (   0.0000000   0.0000000   0.5000000), wk =   0.0056980
        k(  202) = (   0.0100000   0.0000000   0.5000000), wk =   0.0056980
        k(  203) = (   0.0200000   0.0000000   0.5000000), wk =   0.0056980
        k(  204) = (   0.0300000   0.0000000   0.5000000), wk =   0.0056980
        k(  205) = (   0.0400000   0.0000000   0.5000000), wk =   0.0056980
        k(  206) = (   0.0500000   0.0000000   0.5000000), wk =   0.0056980
        k(  207) = (   0.0600000   0.0000000   0.5000000), wk =   0.0056980
        k(  208) = (   0.0700000   0.0000000   0.5000000), wk =   0.0056980
        k(  209) = (   0.0800000   0.0000000   0.5000000), wk =   0.0056980
        k(  210) = (   0.0900000   0.0000000   0.5000000), wk =   0.0056980
        k(  211) = (   0.1000000   0.0000000   0.5000000), wk =   0.0056980
        k(  212) = (   0.1100000   0.0000000   0.5000000), wk =   0.0056980
        k(  213) = (   0.1200000   0.0000000   0.5000000), wk =   0.0056980
        k(  214) = (   0.1300000   0.0000000   0.5000000), wk =   0.0056980
        k(  215) = (   0.1400000   0.0000000   0.5000000), wk =   0.0056980
        k(  216) = (   0.1500000   0.0000000   0.5000000), wk =   0.0056980
        k(  217) = (   0.1600000   0.0000000   0.5000000), wk =   0.0056980
        k(  218) = (   0.1700000   0.0000000   0.5000000), wk =   0.0056980
        k(  219) = (   0.1800000   0.0000000   0.5000000), wk =   0.0056980
        k(  220) = (   0.1900000   0.0000000   0.5000000), wk =   0.0056980
        k(  221) = (   0.2000000   0.0000000   0.5000000), wk =   0.0056980
        k(  222) = (   0.2100000   0.0000000   0.5000000), wk =   0.0056980
        k(  223) = (   0.2200000   0.0000000   0.5000000), wk =   0.0056980
        k(  224) = (   0.2300000   0.0000000   0.5000000), wk =   0.0056980
        k(  225) = (   0.2400000   0.0000000   0.5000000), wk =   0.0056980
        k(  226) = (   0.2500000   0.0000000   0.5000000), wk =   0.0056980
        k(  227) = (   0.2600000   0.0000000   0.5000000), wk =   0.0056980
        k(  228) = (   0.2700000   0.0000000   0.5000000), wk =   0.0056980
        k(  229) = (   0.2800000   0.0000000   0.5000000), wk =   0.0056980
        k(  230) = (   0.2900000   0.0000000   0.5000000), wk =   0.0056980
        k(  231) = (   0.3000000   0.0000000   0.5000000), wk =   0.0056980
        k(  232) = (   0.3100000   0.0000000   0.5000000), wk =   0.0056980
        k(  233) = (   0.3200000   0.0000000   0.5000000), wk =   0.0056980
        k(  234) = (   0.3300000   0.0000000   0.5000000), wk =   0.0056980
        k(  235) = (   0.3400000   0.0000000   0.5000000), wk =   0.0056980
        k(  236) = (   0.3500000   0.0000000   0.5000000), wk =   0.0056980
        k(  237) = (   0.3600000   0.0000000   0.5000000), wk =   0.0056980
        k(  238) = (   0.3700000   0.0000000   0.5000000), wk =   0.0056980
        k(  239) = (   0.3800000   0.0000000   0.5000000), wk =   0.0056980
        k(  240) = (   0.3900000   0.0000000   0.5000000), wk =   0.0056980
        k(  241) = (   0.4000000   0.0000000   0.5000000), wk =   0.0056980
        k(  242) = (   0.4100000   0.0000000   0.5000000), wk =   0.0056980
        k(  243) = (   0.4200000   0.0000000   0.5000000), wk =   0.0056980
        k(  244) = (   0.4300000   0.0000000   0.5000000), wk =   0.0056980
        k(  245) = (   0.4400000   0.0000000   0.5000000), wk =   0.0056980
        k(  246) = (   0.4500000   0.0000000   0.5000000), wk =   0.0056980
        k(  247) = (   0.4600000   0.0000000   0.5000000), wk =   0.0056980
        k(  248) = (   0.4700000   0.0000000   0.5000000), wk =   0.0056980
        k(  249) = (   0.4800000   0.0000000   0.5000000), wk =   0.0056980
        k(  250) = (   0.4900000   0.0000000   0.5000000), wk =   0.0056980
        k(  251) = (   0.5000000   0.0000000   0.5000000), wk =   0.0056980
        k(  252) = (   0.5000000   0.0100000   0.5000000), wk =   0.0056980
        k(  253) = (   0.5000000   0.0200000   0.5000000), wk =   0.0056980
        k(  254) = (   0.5000000   0.0300000   0.5000000), wk =   0.0056980
        k(  255) = (   0.5000000   0.0400000   0.5000000), wk =   0.0056980
        k(  256) = (   0.5000000   0.0500000   0.5000000), wk =   0.0056980
        k(  257) = (   0.5000000   0.0600000   0.5000000), wk =   0.0056980
        k(  258) = (   0.5000000   0.0700000   0.5000000), wk =   0.0056980
        k(  259) = (   0.5000000   0.0800000   0.5000000), wk =   0.0056980
        k(  260) = (   0.5000000   0.0900000   0.5000000), wk =   0.0056980
        k(  261) = (   0.5000000   0.1000000   0.5000000), wk =   0.0056980
        k(  262) = (   0.5000000   0.1100000   0.5000000), wk =   0.0056980
        k(  263) = (   0.5000000   0.1200000   0.5000000), wk =   0.0056980
        k(  264) = (   0.5000000   0.1300000   0.5000000), wk =   0.0056980
        k(  265) = (   0.5000000   0.1400000   0.5000000), wk =   0.0056980
        k(  266) = (   0.5000000   0.1500000   0.5000000), wk =   0.0056980
        k(  267) = (   0.5000000   0.1600000   0.5000000), wk =   0.0056980
        k(  268) = (   0.5000000   0.1700000   0.5000000), wk =   0.0056980
        k(  269) = (   0.5000000   0.1800000   0.5000000), wk =   0.0056980
        k(  270) = (   0.5000000   0.1900000   0.5000000), wk =   0.0056980
        k(  271) = (   0.5000000   0.2000000   0.5000000), wk =   0.0056980
        k(  272) = (   0.5000000   0.2100000   0.5000000), wk =   0.0056980
        k(  273) = (   0.5000000   0.2200000   0.5000000), wk =   0.0056980
        k(  274) = (   0.5000000   0.2300000   0.5000000), wk =   0.0056980
        k(  275) = (   0.5000000   0.2400000   0.5000000), wk =   0.0056980
        k(  276) = (   0.5000000   0.2500000   0.5000000), wk =   0.0056980
        k(  277) = (   0.5000000   0.2600000   0.5000000), wk =   0.0056980
        k(  278) = (   0.5000000   0.2700000   0.5000000), wk =   0.0056980
        k(  279) = (   0.5000000   0.2800000   0.5000000), wk =   0.0056980
        k(  280) = (   0.5000000   0.2900000   0.5000000), wk =   0.0056980
        k(  281) = (   0.5000000   0.3000000   0.5000000), wk =   0.0056980
        k(  282) = (   0.5000000   0.3100000   0.5000000), wk =   0.0056980
        k(  283) = (   0.5000000   0.3200000   0.5000000), wk =   0.0056980
        k(  284) = (   0.5000000   0.3300000   0.5000000), wk =   0.0056980
        k(  285) = (   0.5000000   0.3400000   0.5000000), wk =   0.0056980
        k(  286) = (   0.5000000   0.3500000   0.5000000), wk =   0.0056980
        k(  287) = (   0.5000000   0.3600000   0.5000000), wk =   0.0056980
        k(  288) = (   0.5000000   0.3700000   0.5000000), wk =   0.0056980
        k(  289) = (   0.5000000   0.3800000   0.5000000), wk =   0.0056980
        k(  290) = (   0.5000000   0.3900000   0.5000000), wk =   0.0056980
        k(  291) = (   0.5000000   0.4000000   0.5000000), wk =   0.0056980
        k(  292) = (   0.5000000   0.4100000   0.5000000), wk =   0.0056980
        k(  293) = (   0.5000000   0.4200000   0.5000000), wk =   0.0056980
        k(  294) = (   0.5000000   0.4300000   0.5000000), wk =   0.0056980
        k(  295) = (   0.5000000   0.4400000   0.5000000), wk =   0.0056980
        k(  296) = (   0.5000000   0.4500000   0.5000000), wk =   0.0056980
        k(  297) = (   0.5000000   0.4600000   0.5000000), wk =   0.0056980
        k(  298) = (   0.5000000   0.4700000   0.5000000), wk =   0.0056980
        k(  299) = (   0.5000000   0.4800000   0.5000000), wk =   0.0056980
        k(  300) = (   0.5000000   0.4900000   0.5000000), wk =   0.0056980
        k(  301) = (   0.5000000   0.5000000   0.5000000), wk =   0.0056980
        k(  302) = (   0.4900000   0.4900000   0.5000000), wk =   0.0056980
        k(  303) = (   0.4800000   0.4800000   0.5000000), wk =   0.0056980
        k(  304) = (   0.4700000   0.4700000   0.5000000), wk =   0.0056980
        k(  305) = (   0.4600000   0.4600000   0.5000000), wk =   0.0056980
        k(  306) = (   0.4500000   0.4500000   0.5000000), wk =   0.0056980
        k(  307) = (   0.4400000   0.4400000   0.5000000), wk =   0.0056980
        k(  308) = (   0.4300000   0.4300000   0.5000000), wk =   0.0056980
        k(  309) = (   0.4200000   0.4200000   0.5000000), wk =   0.0056980
        k(  310) = (   0.4100000   0.4100000   0.5000000), wk =   0.0056980
        k(  311) = (   0.4000000   0.4000000   0.5000000), wk =   0.0056980
        k(  312) = (   0.3900000   0.3900000   0.5000000), wk =   0.0056980
        k(  313) = (   0.3800000   0.3800000   0.5000000), wk =   0.0056980
        k(  314) = (   0.3700000   0.3700000   0.5000000), wk =   0.0056980
        k(  315) = (   0.3600000   0.3600000   0.5000000), wk =   0.0056980
        k(  316) = (   0.3500000   0.3500000   0.5000000), wk =   0.0056980
        k(  317) = (   0.3400000   0.3400000   0.5000000), wk =   0.0056980
        k(  318) = (   0.3300000   0.3300000   0.5000000), wk =   0.0056980
        k(  319) = (   0.3200000   0.3200000   0.5000000), wk =   0.0056980
        k(  320) = (   0.3100000   0.3100000   0.5000000), wk =   0.0056980
        k(  321) = (   0.3000000   0.3000000   0.5000000), wk =   0.0056980
        k(  322) = (   0.2900000   0.2900000   0.5000000), wk =   0.0056980
        k(  323) = (   0.2800000   0.2800000   0.5000000), wk =   0.0056980
        k(  324) = (   0.2700000   0.2700000   0.5000000), wk =   0.0056980
        k(  325) = (   0.2600000   0.2600000   0.5000000), wk =   0.0056980
        k(  326) = (   0.2500000   0.2500000   0.5000000), wk =   0.0056980
        k(  327) = (   0.2400000   0.2400000   0.5000000), wk =   0.0056980
        k(  328) = (   0.2300000   0.2300000   0.5000000), wk =   0.0056980
        k(  329) = (   0.2200000   0.2200000   0.5000000), wk =   0.0056980
        k(  330) = (   0.2100000   0.2100000   0.5000000), wk =   0.0056980
        k(  331) = (   0.2000000   0.2000000   0.5000000), wk =   0.0056980
        k(  332) = (   0.1900000   0.1900000   0.5000000), wk =   0.0056980
        k(  333) = (   0.1800000   0.1800000   0.5000000), wk =   0.0056980
        k(  334) = (   0.1700000   0.1700000   0.5000000), wk =   0.0056980
        k(  335) = (   0.1600000   0.1600000   0.5000000), wk =   0.0056980
        k(  336) = (   0.1500000   0.1500000   0.5000000), wk =   0.0056980
        k(  337) = (   0.1400000   0.1400000   0.5000000), wk =   0.0056980
        k(  338) = (   0.1300000   0.1300000   0.5000000), wk =   0.0056980
        k(  339) = (   0.1200000   0.1200000   0.5000000), wk =   0.0056980
        k(  340) = (   0.1100000   0.1100000   0.5000000), wk =   0.0056980
        k(  341) = (   0.1000000   0.1000000   0.5000000), wk =   0.0056980
        k(  342) = (   0.0900000   0.0900000   0.5000000), wk =   0.0056980
        k(  343) = (   0.0800000   0.0800000   0.5000000), wk =   0.0056980
        k(  344) = (   0.0700000   0.0700000   0.5000000), wk =   0.0056980
        k(  345) = (   0.0600000   0.0600000   0.5000000), wk =   0.0056980
        k(  346) = (   0.0500000   0.0500000   0.5000000), wk =   0.0056980
        k(  347) = (   0.0400000   0.0400000   0.5000000), wk =   0.0056980
        k(  348) = (   0.0300000   0.0300000   0.5000000), wk =   0.0056980
        k(  349) = (   0.0200000   0.0200000   0.5000000), wk =   0.0056980
        k(  350) = (   0.0100000   0.0100000   0.5000000), wk =   0.0056980
        k(  351) = (   0.0000000   0.0000000   0.5000000), wk =   0.0056980

     Dense  grid:    74509 G-vectors     FFT dimensions: (  54,  54,  54)

     Largest allocated arrays     est. size (Mb)     dimensions
        Kohn-Sham Wavefunctions         5.38 Mb     (    2350,  150)
        NL pseudopotentials             7.75 Mb     (    2350,  216)
        Each V/rho on FFT grid          0.62 Mb     (   40824)
        Each G-vector array             0.14 Mb     (   18628)
        G-vector shells                 0.00 Mb     (     567)
     Largest temporary arrays     est. size (Mb)     dimensions
        Auxiliary wavefunctions        21.51 Mb     (    2350,  600)
        Each subspace H/S matrix        5.49 Mb     (     600,  600)
        Each <psi_i|beta_j> matrix      0.49 Mb     (     216,  150)

     The potential is recalculated from file :
     /home/users/gstephen/DFTProject/Ti2MnAl/test4/pwscf.save/charge-density.dat

     Starting wfc are   16 randomized atomic wfcs +  134 random wfc

     Band Structure Calculation
     Davidson diagonalization with overlap

     Computing kpt #:     1
     total cpu time spent up to now is       39.4 secs

     Computing kpt #:     2
     total cpu time spent up to now is       77.5 secs

     Computing kpt #:     3
     total cpu time spent up to now is      115.6 secs

     Computing kpt #:     4
     total cpu time spent up to now is      150.6 secs

     Computing kpt #:     5
     total cpu time spent up to now is      185.4 secs

     Computing kpt #:     6
     total cpu time spent up to now is      220.1 secs

     Computing kpt #:     7
     total cpu time spent up to now is      255.0 secs

     Computing kpt #:     8
     total cpu time spent up to now is      290.5 secs

     Computing kpt #:     9
     total cpu time spent up to now is      325.3 secs

     Computing kpt #:    10
     total cpu time spent up to now is      360.8 secs

     Computing kpt #:    11
     total cpu time spent up to now is      395.6 secs

     Computing kpt #:    12
     total cpu time spent up to now is      430.5 secs

     Computing kpt #:    13
     total cpu time spent up to now is      466.3 secs

     Computing kpt #:    14
     total cpu time spent up to now is      501.3 secs

     Computing kpt #:    15
     total cpu time spent up to now is      537.0 secs

     Computing kpt #:    16
     total cpu time spent up to now is      571.8 secs

     Computing kpt #:    17
     total cpu time spent up to now is      607.0 secs

     Computing kpt #:    18
     total cpu time spent up to now is      641.7 secs

     Computing kpt #:    19
     total cpu time spent up to now is      676.7 secs

     Computing kpt #:    20
     total cpu time spent up to now is      711.7 secs

     Computing kpt #:    21
     total cpu time spent up to now is      747.4 secs

     Computing kpt #:    22
     total cpu time spent up to now is      782.4 secs

     Computing kpt #:    23
     total cpu time spent up to now is      819.5 secs

     Computing kpt #:    24
     total cpu time spent up to now is      855.1 secs

     Computing kpt #:    25
     total cpu time spent up to now is      891.0 secs

     Computing kpt #:    26
     total cpu time spent up to now is      926.1 secs

     Computing kpt #:    27
     total cpu time spent up to now is      961.2 secs

     Computing kpt #:    28
     total cpu time spent up to now is      996.7 secs

     Computing kpt #:    29
     total cpu time spent up to now is     1032.3 secs

     Computing kpt #:    30
     total cpu time spent up to now is     1067.5 secs

     Computing kpt #:    31
     total cpu time spent up to now is     1102.6 secs

     Computing kpt #:    32
     total cpu time spent up to now is     1137.8 secs

     Computing kpt #:    33
     total cpu time spent up to now is     1172.3 secs

     Computing kpt #:    34
     total cpu time spent up to now is     1206.7 secs

     Computing kpt #:    35
     total cpu time spent up to now is     1242.0 secs

     Computing kpt #:    36
     total cpu time spent up to now is     1277.7 secs

     Computing kpt #:    37
     total cpu time spent up to now is     1316.7 secs

     Computing kpt #:    38
     total cpu time spent up to now is     1355.5 secs

     Computing kpt #:    39
     total cpu time spent up to now is     1394.2 secs

     Computing kpt #:    40
     total cpu time spent up to now is     1433.7 secs

     Computing kpt #:    41
     total cpu time spent up to now is     1469.1 secs

     Computing kpt #:    42
     total cpu time spent up to now is     1505.0 secs

     Computing kpt #:    43
     total cpu time spent up to now is     1540.2 secs

     Computing kpt #:    44
     total cpu time spent up to now is     1575.4 secs

     Computing kpt #:    45
     total cpu time spent up to now is     1610.3 secs

     Computing kpt #:    46
     total cpu time spent up to now is     1645.2 secs

     Computing kpt #:    47
     total cpu time spent up to now is     1680.9 secs

     Computing kpt #:    48
     total cpu time spent up to now is     1715.2 secs

     Computing kpt #:    49
     total cpu time spent up to now is     1750.2 secs

     Computing kpt #:    50
     total cpu time spent up to now is     1784.5 secs

     Computing kpt #:    51
     total cpu time spent up to now is     1818.8 secs

     Computing kpt #:    52
     total cpu time spent up to now is     1853.7 secs

     Computing kpt #:    53
     total cpu time spent up to now is     1889.0 secs

     Computing kpt #:    54
     total cpu time spent up to now is     1923.4 secs

     Computing kpt #:    55
     total cpu time spent up to now is     1958.8 secs

     Computing kpt #:    56
     total cpu time spent up to now is     1993.8 secs

     Computing kpt #:    57
     total cpu time spent up to now is     2028.7 secs

     Computing kpt #:    58
     total cpu time spent up to now is     2063.5 secs

     Computing kpt #:    59
     total cpu time spent up to now is     2098.7 secs

     Computing kpt #:    60
     total cpu time spent up to now is     2134.1 secs

     Computing kpt #:    61
     total cpu time spent up to now is     2169.5 secs

     Computing kpt #:    62
     total cpu time spent up to now is     2205.2 secs

     Computing kpt #:    63
     total cpu time spent up to now is     2240.8 secs

     Computing kpt #:    64
     total cpu time spent up to now is     2276.4 secs

     Computing kpt #:    65
     total cpu time spent up to now is     2311.6 secs

     Computing kpt #:    66
     total cpu time spent up to now is     2347.9 secs

     Computing kpt #:    67
     total cpu time spent up to now is     2384.3 secs

     Computing kpt #:    68
     total cpu time spent up to now is     2421.0 secs

     Computing kpt #:    69
     total cpu time spent up to now is     2457.1 secs

     Computing kpt #:    70
     total cpu time spent up to now is     2496.8 secs

     Computing kpt #:    71
     total cpu time spent up to now is     2535.5 secs

     Computing kpt #:    72
     total cpu time spent up to now is     2574.3 secs

     Computing kpt #:    73
     total cpu time spent up to now is     2611.0 secs

     Computing kpt #:    74
     total cpu time spent up to now is     2647.0 secs

     Computing kpt #:    75
     total cpu time spent up to now is     2682.2 secs

     Computing kpt #:    76
     total cpu time spent up to now is     2718.3 secs

     Computing kpt #:    77
     total cpu time spent up to now is     2753.8 secs

     Computing kpt #:    78
     total cpu time spent up to now is     2789.7 secs

     Computing kpt #:    79
     total cpu time spent up to now is     2825.1 secs

     Computing kpt #:    80
     total cpu time spent up to now is     2860.2 secs

     Computing kpt #:    81
     total cpu time spent up to now is     2895.8 secs

     Computing kpt #:    82
     total cpu time spent up to now is     2931.5 secs

     Computing kpt #:    83
     total cpu time spent up to now is     2967.7 secs

     Computing kpt #:    84
     total cpu time spent up to now is     3004.0 secs

     Computing kpt #:    85
     total cpu time spent up to now is     3039.9 secs

     Computing kpt #:    86
     total cpu time spent up to now is     3075.8 secs

     Computing kpt #:    87
     total cpu time spent up to now is     3111.8 secs

     Computing kpt #:    88
     total cpu time spent up to now is     3148.0 secs

     Computing kpt #:    89
     total cpu time spent up to now is     3187.3 secs

     Computing kpt #:    90
     total cpu time spent up to now is     3223.2 secs

     Computing kpt #:    91
     total cpu time spent up to now is     3260.1 secs

     Computing kpt #:    92
     total cpu time spent up to now is     3299.4 secs

     Computing kpt #:    93
     total cpu time spent up to now is     3338.5 secs

     Computing kpt #:    94
[...]
    13.4498  13.4510  13.6965  13.6981  15.1401  15.1414  15.4123  15.4126
    16.7244  16.7269  17.7103  17.7128  18.0616  18.0659  18.2193  18.2205
    18.6847  18.6915  18.9959  19.0003  19.0188  19.0231  19.5357  19.5387
    19.6188  19.6202  19.7756  19.7807  19.9469  19.9512  20.9281  20.9283
    21.4763  21.4793  22.9687  22.9692  23.0999  23.1026  23.3244  23.3265
    23.7640  23.7644  24.3825  24.3835  24.7929  24.7941  25.7947  25.7961
    26.2224  26.2226  27.0095  27.0101  27.0810  27.0821  27.9647  27.9652
    28.1226  28.1235  29.1374  29.1378  29.2475  29.2476  29.2591  29.2609
    29.7982  29.7985  30.3727  30.3730  31.6587  31.6591  31.7867  31.7873
    32.0537  32.0544  32.8589  32.8598  33.9783  33.9786  34.3501  34.3502
    34.7255  34.7260  35.0521  35.0524  35.4317  35.4331

          k = 0.1200 0.1200 0.5000 (  9298 PWs)   bands (ev):

   -73.7898 -73.7767 -73.7137 -73.7041 -43.1773 -43.1768 -43.1768 -43.1576
   -43.1555 -43.1548 -43.1546 -43.1540 -43.1539 -43.1530 -43.1529 -43.1516
     5.0280   5.0283   5.1051   5.1052   5.1091   5.1098   5.3168   5.3176
     5.3223   5.3235   5.5313   5.5313   5.6958   5.6974   5.7748   5.7755
     5.8224   5.8229   5.9301   5.9313   5.9463   5.9469   6.1784   6.1791
     6.3143   6.3151   6.3898   6.3899   6.5917   6.5919   6.9192   6.9199
     6.9993   6.9998   7.0792   7.0801   7.3895   7.3896   7.4283   7.4286
     7.5220   7.5225   9.6692   9.6700  10.6034  10.6042  12.3672  12.3677
    13.5650  13.5661  13.6025  13.6042  15.1342  15.1354  15.4004  15.4007
    16.6538  16.6562  17.7424  17.7451  18.0509  18.0553  18.2049  18.2060
    18.6890  18.6958  18.9669  18.9715  19.0229  19.0276  19.5129  19.5158
    19.5883  19.5898  19.7793  19.7844  19.9458  19.9506  20.9821  20.9823
    21.4292  21.4323  22.9843  22.9849  23.1400  23.1426  23.3451  23.3472
    23.7204  23.7208  24.3264  24.3272  24.8648  24.8660  25.7531  25.7545
    26.3414  26.3416  27.0928  27.0939  27.1561  27.1566  27.8567  27.8572
    28.1669  28.1679  29.0740  29.0744  29.1166  29.1184  29.3049  29.3049
    29.7211  29.7214  30.2670  30.2674  31.5977  31.5981  31.9081  31.9087
    32.0507  32.0513  32.9136  32.9144  33.9848  33.9852  34.3172  34.3172
    34.7581  34.7584  35.0077  35.0079  35.3368  35.3382

          k = 0.1100 0.1100 0.5000 (  9306 PWs)   bands (ev):

   -73.7722 -73.7541 -73.7464 -73.7418 -43.1774 -43.1772 -43.1770 -43.1562
   -43.1560 -43.1556 -43.1545 -43.1544 -43.1542 -43.1541 -43.1540 -43.1522
     5.0272   5.0274   5.1001   5.1002   5.1074   5.1080   5.3180   5.3189
     5.3235   5.3248   5.5366   5.5366   5.6969   5.6985   5.7667   5.7674
     5.8200   5.8206   5.9322   5.9334   5.9583   5.9590   6.1921   6.1928
     6.3006   6.3014   6.3766   6.3768   6.5840   6.5843   6.9222   6.9228
     6.9890   6.9896   7.0754   7.0762   7.3941   7.3942   7.4307   7.4309
     7.5237   7.5242   9.7176   9.7184  10.6218  10.6226  12.3214  12.3218
    13.5092  13.5108  13.6781  13.6792  15.1355  15.1367  15.3937  15.3939
    16.5881  16.5905  17.7429  17.7456  18.0272  18.0317  18.2106  18.2112
    18.6728  18.6796  18.9180  18.9228  19.0762  19.0812  19.5158  19.5189
    19.5707  19.5725  19.7615  19.7668  19.9662  19.9713  21.0223  21.0225
    21.3985  21.4016  22.9685  22.9692  23.1889  23.1913  23.3718  23.3738
    23.6666  23.6671  24.2562  24.2570  24.9535  24.9548  25.7238  25.7251
    26.4538  26.4539  27.1186  27.1197  27.2959  27.2962  27.7621  27.7626
    28.2090  28.2101  28.9831  28.9849  29.0181  29.0185  29.3659  29.3659
    29.6417  29.6420  30.1574  30.1578  31.5339  31.5343  32.0251  32.0259
    32.0370  32.0375  32.9884  32.9891  33.9905  33.9908  34.2945  34.2945
    34.7928  34.7931  34.9486  34.9488  35.2539  35.2554

          k = 0.1000 0.1000 0.5000 (  9320 PWs)   bands (ev):

   -73.7845 -73.7653 -73.7602 -73.7567 -43.1780 -43.1779 -43.1774 -43.1567
   -43.1565 -43.1557 -43.1554 -43.1553 -43.1550 -43.1546 -43.1544 -43.1528
     5.0266   5.0268   5.0954   5.0955   5.1058   5.1064   5.3191   5.3201
     5.3244   5.3257   5.5422   5.5422   5.6977   5.6992   5.7587   5.7593
     5.8176   5.8181   5.9338   5.9350   5.9703   5.9711   6.2048   6.2054
     6.2876   6.2885   6.3646   6.3648   6.5765   6.5767   6.9250   6.9257
     6.9799   6.9805   7.0714   7.0723   7.3986   7.3987   7.4326   7.4329
     7.5251   7.5256   9.7676   9.7684  10.6329  10.6335  12.2866  12.2869
    13.4174  13.4191  13.7868  13.7878  15.1356  15.1367  15.3831  15.3834
    16.5233  16.5256  17.7698  17.7727  18.0034  18.0080  18.2069  18.2073
    18.6659  18.6728  18.8872  18.8921  19.0759  19.0810  19.4968  19.4998
    19.5280  19.5300  19.7518  19.7571  19.9663  19.9716  21.0702  21.0703
    21.3858  21.3890  22.9799  22.9808  23.2290  23.2314  23.3915  23.3935
    23.6155  23.6162  24.1947  24.1953  25.0234  25.0247  25.7070  25.7083
    26.5688  26.5689  27.1303  27.1313  27.4345  27.4346  27.6684  27.6689
    28.2530  28.2543  28.8459  28.8478  28.9583  28.9587  29.4338  29.4339
    29.5632  29.5637  30.0444  30.0449  31.4765  31.4769  31.9813  31.9819
    32.1631  32.1636  33.0442  33.0448  33.9909  33.9912  34.2865  34.2866
    34.8301  34.8304  34.8738  34.8740  35.1643  35.1658

          k = 0.0900 0.0900 0.5000 (  9300 PWs)   bands (ev):

   -73.7678 -73.7505 -73.7401 -73.7347 -43.1773 -43.1768 -43.1768 -43.1560
   -43.1559 -43.1555 -43.1546 -43.1538 -43.1538 -43.1536 -43.1535 -43.1523
     5.0263   5.0265   5.0910   5.0912   5.1043   5.1050   5.3206   5.3216
     5.3253   5.3265   5.5478   5.5479   5.6987   5.7002   5.7508   5.7515
     5.8153   5.8158   5.9351   5.9363   5.9824   5.9831   6.2161   6.2166
     6.2758   6.2766   6.3540   6.3543   6.5690   6.5692   6.9278   6.9285
     6.9722   6.9727   7.0677   7.0686   7.4030   7.4031   7.4343   7.4345
     7.5266   7.5271   9.8194   9.8202  10.6366  10.6371  12.2638  12.2640
    13.3294  13.3310  13.8917  13.8927  15.1418  15.1429  15.3783  15.3786
    16.4548  16.4570  17.7989  17.8020  18.0111  18.0156  18.2149  18.2149
    18.6779  18.6847  18.8689  18.8740  19.0967  19.1018  19.5024  19.5052
    19.5097  19.5121  19.7848  19.7901  19.9731  19.9786  21.1308  21.1309
    21.3716  21.3749  23.0019  23.0029  23.2715  23.2738  23.4156  23.4176
    23.5819  23.5826  24.1563  24.1569  25.1008  25.1022  25.6912  25.6925
    26.6874  26.6875  27.1551  27.1561  27.5696  27.5697  27.5856  27.5860
    28.3036  28.3052  28.7245  28.7264  28.9056  28.9060  29.4872  29.4876
    29.5111  29.5112  29.9325  29.9330  31.4274  31.4278  31.9206  31.9213
    32.2941  32.2946  33.1068  33.1074  33.9865  33.9868  34.2941  34.2942
    34.7920  34.7921  34.8687  34.8689  35.0870  35.0886

          k = 0.0800 0.0800 0.5000 (  9308 PWs)   bands (ev):

   -73.7729 -73.7504 -73.7502 -73.7500 -43.1777 -43.1774 -43.1769 -43.1568
   -43.1561 -43.1557 -43.1551 -43.1545 -43.1540 -43.1538 -43.1538 -43.1523
     5.0262   5.0264   5.0868   5.0870   5.1030   5.1036   5.3219   5.3230
     5.3260   5.3273   5.5533   5.5534   5.6995   5.7010   5.7430   5.7437
     5.8130   5.8135   5.9360   5.9372   5.9940   5.9948   6.2252   6.2256
     6.2651   6.2659   6.3450   6.3455   6.5615   6.5616   6.9305   6.9311
     6.9655   6.9660   7.0641   7.0650   7.4072   7.4073   7.4355   7.4357
     7.5278   7.5283   9.8722   9.8729  10.6310  10.6314  12.2511  12.2512
    13.2413  13.2429  13.9892  13.9901  15.1519  15.1528  15.3702  15.3705
    16.3841  16.3863  17.8170  17.8201  18.0020  18.0064  18.2128  18.2131
    18.6656  18.6725  18.8356  18.8409  19.1148  19.1201  19.4819  19.4847
    19.4880  19.4909  19.7755  19.7808  19.9782  19.9837  21.1679  21.1680
    21.3604  21.3637  23.0071  23.0083  23.3115  23.3137  23.4327  23.4346
    23.5400  23.5406  24.1089  24.1095  25.1682  25.1696  25.6779  25.6792
    26.7928  26.7929  27.1707  27.1716  27.5090  27.5093  27.6971  27.6973
    28.3525  28.3541  28.6044  28.6064  28.8543  28.8547  29.4075  29.4081
    29.5887  29.5889  29.8208  29.8214  31.3752  31.3756  31.8420  31.8427
    32.4227  32.4232  33.1692  33.1697  33.9761  33.9763  34.3119  34.3120
    34.7044  34.7045  34.9050  34.9051  35.0066  35.0083

          k = 0.0700 0.0700 0.5000 (  9308 PWs)   bands (ev):

   -73.7729 -73.7504 -73.7502 -73.7500 -43.1778 -43.1773 -43.1770 -43.1568
   -43.1563 -43.1560 -43.1551 -43.1544 -43.1539 -43.1538 -43.1537 -43.1521
     5.0264   5.0265   5.0829   5.0831   5.1018   5.1024   5.3233   5.3244
     5.3267   5.3280   5.5587   5.5588   5.6999   5.7015   5.7355   5.7362
     5.8110   5.8115   5.9366   5.9378   6.0052   6.0060   6.2318   6.2321
     6.2555   6.2563   6.3384   6.3392   6.5543   6.5544   6.9330   6.9337
     6.9598   6.9603   7.0609   7.0618   7.4111   7.4112   7.4363   7.4365
     7.5289   7.5294   9.9262   9.9269  10.6171  10.6173  12.2498  12.2498
    13.1560  13.1576  14.0779  14.0788  15.1670  15.1679  15.3633  15.3636
    16.3126  16.3146  17.8388  17.8418  18.0027  18.0068  18.2113  18.2119
    18.6681  18.6749  18.8089  18.8144  19.1305  19.1358  19.4507  19.4537
    19.4790  19.4818  19.7778  19.7831  19.9864  19.9921  21.2057  21.2058
    21.3504  21.3538  23.0246  23.0260  23.3495  23.3516  23.4492  23.4511
    23.5030  23.5036  24.0701  24.0706  25.2288  25.2303  25.6680  25.6692
    26.8922  26.8923  27.1858  27.1868  27.4405  27.4407  27.8204  27.8208
    28.4045  28.4063  28.4910  28.4931  28.8069  28.8074  29.3286  29.3293
    29.6552  29.6553  29.7280  29.7285  31.3310  31.3314  31.7522  31.7529
    32.5516  32.5520  33.2287  33.2291  33.9587  33.9590  34.3400  34.3401
    34.6155  34.6157  34.9316  34.9334  34.9400  34.9402

          k = 0.0600 0.0600 0.5000 (  9288 PWs)   bands (ev):

   -73.7586 -73.7425 -73.7269 -73.7203 -43.1773 -43.1765 -43.1758 -43.1559
   -43.1552 -43.1551 -43.1548 -43.1537 -43.1536 -43.1529 -43.1522 -43.1514
     5.0267   5.0268   5.0794   5.0796   5.1008   5.1014   5.3248   5.3259
     5.3273   5.3286   5.5639   5.5640   5.7006   5.7022   5.7285   5.7292
     5.8091   5.8096   5.9370   5.9382   6.0158   6.0166   6.2354   6.2356
     6.2474   6.2482   6.3346   6.3355   6.5474   6.5475   6.9354   6.9360
     6.9551   6.9557   7.0579   7.0588   7.4148   7.4149   7.4368   7.4370
     7.5300   7.5305   9.9810   9.9818  10.5951  10.5953  12.2590  12.2590
    13.0743  13.0759  14.1607  14.1615  15.1912  15.1919  15.3578  15.3581
    16.2448  16.2468  17.8571  17.8598  18.0075  18.0111  18.2148  18.2157
    18.6834  18.6903  18.7839  18.7896  19.1830  19.1884  19.4622  19.4655
    19.4732  19.4760  19.7897  19.7950  19.9966  20.0024  21.2423  21.2426
    21.3543  21.3578  23.0474  23.0491  23.3899  23.3919  23.4639  23.4659
    23.4688  23.4694  24.0358  24.0362  25.2882  25.2898  25.6715  25.6727
    26.9833  26.9834  27.2033  27.2043  27.3948  27.3950  27.9392  27.9398
    28.3906  28.3928  28.4586  28.4605  28.7701  28.7706  29.2489  29.2497
    29.5879  29.5887  29.7777  29.7777  31.2931  31.2935  31.6545  31.6552
    32.6867  32.6871  33.2947  33.2950  33.9325  33.9326  34.3751  34.3752
    34.5345  34.5347  34.8698  34.8717  34.9725  34.9726

          k = 0.0500 0.0500 0.5000 (  9278 PWs)   bands (ev):

   -73.7568 -73.7425 -73.7100 -73.7016 -43.1771 -43.1764 -43.1748 -43.1559
   -43.1551 -43.1545 -43.1543 -43.1536 -43.1535 -43.1522 -43.1511 -43.1506
     5.0271   5.0272   5.0763   5.0765   5.0999   5.1006   5.3260   5.3272
     5.3279   5.3291   5.5688   5.5688   5.7012   5.7028   5.7221   5.7228
     5.8076   5.8081   5.9372   5.9384   6.0256   6.0265   6.2362   6.2362
     6.2405   6.2413   6.3335   6.3346   6.5410   6.5411   6.9375   6.9381
     6.9513   6.9518   7.0553   7.0562   7.4183   7.4184   7.4368   7.4370
     7.5309   7.5314  10.0363  10.0370  10.5659  10.5659  12.2768  12.2770
    12.9960  12.9977  14.2333  14.2341  15.2187  15.2194  15.3525  15.3527
    16.1776  16.1796  17.8699  17.8722  18.0150  18.0179  18.2118  18.2129
    18.6850  18.6918  18.7612  18.7672  19.2164  19.2220  19.4604  19.4623
    19.4633  19.4659  19.7915  19.7968  20.0062  20.0120  21.2717  21.2720
    21.3688  21.3724  23.0639  23.0658  23.4239  23.4259  23.4375  23.4379
    23.4754  23.4773  24.0061  24.0064  25.3336  25.3353  25.6820  25.6831
    27.0638  27.0639  27.2170  27.2180  27.3542  27.3545  28.0537  28.0544
    28.2979  28.3002  28.5125  28.5145  28.7358  28.7363  29.1661  29.1671
    29.4869  29.4878  29.8668  29.8669  31.2573  31.2577  31.5533  31.5540
    32.8174  32.8178  33.3519  33.3521  33.8917  33.8917  34.4122  34.4123
    34.4625  34.4628  34.8098  34.8118  35.0015  35.0016

          k = 0.0400 0.0400 0.5000 (  9282 PWs)   bands (ev):

   -73.7637 -73.7498 -73.7105 -73.7017 -43.1771 -43.1766 -43.1753 -43.1563
   -43.1550 -43.1546 -43.1544 -43.1543 -43.1537 -43.1525 -43.1511 -43.1506
     5.0276   5.0277   5.0736   5.0738   5.0992   5.0999   5.3270   5.3282
     5.3283   5.3296   5.5731   5.5732   5.7016   5.7032   5.7164   5.7171
     5.8062   5.8067   5.9372   5.9384   6.0342   6.0352   6.2346   6.2347
     6.2348   6.2355   6.3344   6.3356   6.5353   6.5354   6.9393   6.9399
     6.9482   6.9487   7.0530   7.0540   7.4215   7.4216   7.4364   7.4366
     7.5316   7.5321  10.0912  10.0920  10.5306  10.5306  12.3016  12.3017
    12.9226  12.9243  14.2908  14.2915  15.2494  15.2499  15.3480  15.3482
    16.1098  16.1118  17.8806  17.8821  18.0229  18.0249  18.2081  18.2094
    18.6807  18.6875  18.7383  18.7446  19.2335  19.2394  19.4453  19.4457
    19.4482  19.4495  19.7737  19.7791  20.0095  20.0154  21.2922  21.2925
    21.3653  21.3688  23.0773  23.0794  23.4085  23.4089  23.4510  23.4529
    23.4845  23.4864  23.9811  23.9813  25.3651  25.3667  25.6871  25.6882
    27.1328  27.1328  27.2288  27.2297  27.3173  27.3178  28.1647  28.1655
    28.2168  28.2192  28.5646  28.5668  28.7041  28.7046  29.0810  29.0821
    29.3905  29.3915  29.9580  29.9581  31.2222  31.2226  31.4546  31.4553
    32.9454  32.9458  33.4008  33.4010  33.8342  33.8343  34.4003  34.4006
    34.4486  34.4487  34.7520  34.7541  35.0265  35.0265

          k = 0.0300 0.0300 0.5000 (  9294 PWs)   bands (ev):

   -73.7787 -73.7651 -73.7183 -73.7092 -43.1770 -43.1768 -43.1767 -43.1567
   -43.1561 -43.1549 -43.1547 -43.1543 -43.1541 -43.1533 -43.1521 -43.1506
     5.0280   5.0281   5.0714   5.0717   5.0986   5.0993   5.3279   5.3286
     5.3291   5.3299   5.5768   5.5768   5.7019   5.7035   5.7116   5.7123
     5.8051   5.8056   5.9371   5.9383   6.0416   6.0426   6.2301   6.2309
     6.2320   6.2320   6.3364   6.3378   6.5305   6.5306   6.9408   6.9414
     6.9458   6.9464   7.0511   7.0521   7.4243   7.4245   7.4356   7.4358
     7.5321   7.5326  10.1452  10.1459  10.4910  10.4911  12.3304  12.3305
    12.8560  12.8578  14.3338  14.3345  15.2812  15.2816  15.3438  15.3441
    16.0450  16.0470  17.8817  17.8823  18.0277  18.0287  18.2044  18.2059
    18.6554  18.6624  18.7098  18.7162  19.2472  19.2535  19.4302  19.4326
    19.4332  19.4365  19.7734  19.7788  20.0065  20.0124  21.3108  21.3111
    21.3494  21.3530  23.0839  23.0863  23.3811  23.3814  23.4728  23.4747
    23.4911  23.4930  23.9564  23.9564  25.3806  25.3823  25.6909  25.6920
    27.1878  27.1878  27.2367  27.2376  27.2898  27.2905  28.1499  28.1524
    28.2730  28.2738  28.6082  28.6103  28.6785  28.6790  28.9966  28.9977
    29.2944  29.2955  30.0453  30.0453  31.1886  31.1889  31.3658  31.3666
    33.0718  33.0722  33.4420  33.4421  33.7597  33.7598  34.3525  34.3529
    34.4814  34.4814  34.7032  34.7054  35.0467  35.0467

          k = 0.0200 0.0200 0.5000 (  9290 PWs)   bands (ev):

   -73.7716 -73.7577 -73.7179 -73.7091 -43.1770 -43.1768 -43.1762 -43.1559
   -43.1559 -43.1549 -43.1546 -43.1543 -43.1541 -43.1530 -43.1521 -43.1506
     5.0285   5.0285   5.0697   5.0700   5.0982   5.0989   5.3286   5.3289
     5.3298   5.3301   5.5796   5.5796   5.7021   5.7037   5.7081   5.7088
     5.8043   5.8047   5.9370   5.9382   6.0472   6.0482   6.2269   6.2277
     6.2293   6.2293   6.3386   6.3400   6.5269   6.5269   6.9419   6.9424
     6.9441   6.9447   7.0498   7.0508   7.4270   7.4271   7.4346   7.4348
     7.5324   7.5330  10.1967  10.1975  10.4494  10.4495  12.3598  12.3599
    12.8017  12.8036  14.3654  14.3662  15.3117  15.3120  15.3413  15.3415
    15.9943  15.9963  17.8845  17.8848  18.0380  18.0384  18.2020  18.2037
    18.6644  18.6713  18.7022  18.7086  19.2611  19.2679  19.4173  19.4206
    19.4231  19.4272  19.7844  19.7898  20.0085  20.0145  21.3276  21.3280
    21.3477  21.3512  23.0991  23.1017  23.3640  23.3641  23.4892  23.4911
    23.4962  23.4981  23.9426  23.9426  25.3943  25.3960  25.6991  25.7002
    27.2277  27.2277  27.2439  27.2448  27.2716  27.2724  28.0998  28.1024
    28.3777  28.3784  28.6395  28.6413  28.6600  28.6605  28.9223  28.9234
    29.2243  29.2255  30.1197  30.1197  31.1554  31.1557  31.3037  31.3045
    33.1952  33.1956  33.4743  33.4744  33.6709  33.6711  34.3216  34.3220
    34.5078  34.5078  34.6662  34.6685  35.0619  35.0619

          k = 0.0100 0.0100 0.5000 (  9298 PWs)   bands (ev):

   -73.7726 -73.7578 -73.7320 -73.7241 -43.1773 -43.1773 -43.1762 -43.1560
   -43.1560 -43.1551 -43.1549 -43.1548 -43.1545 -43.1534 -43.1532 -43.1506
     5.0287   5.0287   5.0687   5.0690   5.0979   5.0985   5.3289   5.3290
     5.3302   5.3303   5.5813   5.5813   5.7022   5.7039   5.7058   5.7065
     5.8036   5.8041   5.9369   5.9381   6.0508   6.0518   6.2248   6.2256
     6.2273   6.2273   6.3403   6.3417   6.5246   6.5246   6.9425   6.9430
     6.9431   6.9437   7.0489   7.0499   7.4293   7.4294   7.4332   7.4334
     7.5326   7.5331  10.2405  10.2413  10.4113  10.4114  12.3830  12.3830
    12.7634  12.7653  14.3821  14.3828  15.3336  15.3339  15.3375  15.3377
    15.9566  15.9586  17.8855  17.8856  18.0441  18.0442  18.2000  18.2017
    18.6644  18.6714  18.6948  18.7014  19.2676  19.2751  19.3893  19.3931
    19.4156  19.4197  19.7849  19.7903  20.0003  20.0063  21.3311  21.3352
    21.3361  21.3369  23.1061  23.1088  23.3527  23.3528  23.4975  23.4992
    23.4993  23.5010  23.9340  23.9340  25.3953  25.3970  25.6988  25.6999
    27.2416  27.2426  27.2518  27.2521  27.2608  27.2617  28.0664  28.0691
    28.4756  28.4760  28.6330  28.6339  28.6475  28.6480  28.8747  28.8752
    29.1742  29.1753  30.1710  30.1710  31.1240  31.1243  31.2689  31.2698
    33.3114  33.3118  33.4908  33.4910  33.5735  33.5738  34.3025  34.3030
    34.5247  34.5247  34.6399  34.6422  35.0712  35.0712

          k = 0.0000 0.0000 0.5000 (  9322 PWs)   bands (ev):

   -73.7869 -73.7683 -73.7619 -73.7578 -43.1778 -43.1778 -43.1778 -43.1560
   -43.1560 -43.1559 -43.1554 -43.1554 -43.1549 -43.1549 -43.1545 -43.1545
     5.0288   5.0288   5.0684   5.0687   5.0976   5.0983   5.3290   5.3290
     5.3303   5.3303   5.5820   5.5820   5.7022   5.7038   5.7051   5.7058
     5.8033   5.8038   5.9367   5.9380   6.0520   6.0530   6.2236   6.2244
     6.2266   6.2266   6.3408   6.3423   6.5238   6.5238   6.9427   6.9427
     6.9433   6.9433   7.0486   7.0495   7.4309   7.4309   7.4319   7.4322
     7.5326   7.5331  10.2608  10.2617  10.3928  10.3928  12.3921  12.3921
    12.7493  12.7513  14.3822  14.3829  15.3367  15.3367  15.3369  15.3369
    15.9341  15.9362  17.8858  17.8858  18.0463  18.0463  18.1972  18.1989
    18.6643  18.6713  18.6924  18.6990  19.2217  19.2297  19.3822  19.3822
    19.3863  19.3863  19.7850  19.7904  19.9729  19.9789  21.2938  21.2976
    21.3389  21.3394  23.1086  23.1113  23.3488  23.3488  23.4983  23.4983
    23.5002  23.5002  23.9311  23.9311  25.3826  25.3843  25.6836  25.6846
    27.2424  27.2424  27.2434  27.2434  27.2601  27.2601  28.0524  28.0550
    28.5400  28.5402  28.5985  28.5985  28.6340  28.6346  28.8617  28.8617
    29.1556  29.1567  30.1897  30.1897  31.1108  31.1111  31.2585  31.2593
    33.3853  33.3857  33.4974  33.4974  33.4976  33.4976  34.2907  34.2911
    34.5306  34.5306  34.6122  34.6146  35.0744  35.0744

     Writing output data file pwscf.save
